 Entering Gaussian System, Link 0=g09
 Initial command:
 /opt/sys/apps/gaussian09/D.01/g09/l1.exe "/tmp/Gau-27384.inp" -scrdir="/tmp/"
 Entering Link 1 = /opt/sys/apps/gaussian09/D.01/g09/l1.exe PID=     27385.
  
 Copyright (c) 1988,1990,1992,1993,1995,1998,2003,2009,2013,
            Gaussian, Inc.  All Rights Reserved.
  
 This is part of the Gaussian(R) 09 program.  It is based on
 the Gaussian(R) 03 system (copyright 2003, Gaussian, Inc.),
 the Gaussian(R) 98 system (copyright 1998, Gaussian, Inc.),
 the Gaussian(R) 94 system (copyright 1995, Gaussian, Inc.),
 the Gaussian 92(TM) system (copyright 1992, Gaussian, Inc.),
 the Gaussian 90(TM) system (copyright 1990, Gaussian, Inc.),
 the Gaussian 88(TM) system (copyright 1988, Gaussian, Inc.),
 the Gaussian 86(TM) system (copyright 1986, Carnegie Mellon
 University), and the Gaussian 82(TM) system (copyright 1983,
 Carnegie Mellon University). Gaussian is a federally registered
 trademark of Gaussian, Inc.
  
 This software contains proprietary and confidential information,
 including trade secrets, belonging to Gaussian, Inc.
  
 This software is provided under written license and may be
 used, copied, transmitted, or stored only in accord with that
 written license.
  
 The following legend is applicable only to US Government
 contracts under FAR:
  
                    RESTRICTED RIGHTS LEGEND
  
 Use, reproduction and disclosure by the US Government is
 subject to restrictions as set forth in subparagraphs (a)
 and (c) of the Commercial Computer Software - Restricted
 Rights clause in FAR 52.227-19.
  
 Gaussian, Inc.
 340 Quinnipiac St., Bldg. 40, Wallingford CT 06492
  
  
 ---------------------------------------------------------------
 Warning -- This program may not be used in any manner that
 competes with the business of Gaussian, Inc. or will provide
 assistance to any competitor of Gaussian, Inc.  The licensee
 of this program is prohibited from giving any competitor of
 Gaussian, Inc. access to this program.  By using this program,
 the user acknowledges that Gaussian, Inc. is engaged in the
 business of creating and licensing software in the field of
 computational chemistry and represents and warrants to the
 licensee that it is not a competitor of Gaussian, Inc. and that
 it will not use this program in any manner prohibited above.
 ---------------------------------------------------------------
  

 Cite this work as:
 Gaussian 09, Revision D.01,
 M. J. Frisch, G. W. Trucks, H. B. Schlegel, G. E. Scuseria, 
 M. A. Robb, J. R. Cheeseman, G. Scalmani, V. Barone, B. Mennucci, 
 G. A. Petersson, H. Nakatsuji, M. Caricato, X. Li, H. P. Hratchian, 
 A. F. Izmaylov, J. Bloino, G. Zheng, J. L. Sonnenberg, M. Hada, 
 M. Ehara, K. Toyota, R. Fukuda, J. Hasegawa, M. Ishida, T. Nakajima, 
 Y. Honda, O. Kitao, H. Nakai, T. Vreven, J. A. Montgomery, Jr., 
 J. E. Peralta, F. Ogliaro, M. Bearpark, J. J. Heyd, E. Brothers, 
 K. N. Kudin, V. N. Staroverov, T. Keith, R. Kobayashi, J. Normand, 
 K. Raghavachari, A. Rendell, J. C. Burant, S. S. Iyengar, J. Tomasi, 
 M. Cossi, N. Rega, J. M. Millam, M. Klene, J. E. Knox, J. B. Cross, 
 V. Bakken, C. Adamo, J. Jaramillo, R. Gomperts, R. E. Stratmann, 
 O. Yazyev, A. J. Austin, R. Cammi, C. Pomelli, J. W. Ochterski, 
 R. L. Martin, K. Morokuma, V. G. Zakrzewski, G. A. Voth, 
 P. Salvador, J. J. Dannenberg, S. Dapprich, A. D. Daniels, 
 O. Farkas, J. B. Foresman, J. V. Ortiz, J. Cioslowski, 
 and D. J. Fox, Gaussian, Inc., Wallingford CT, 2013.
 
 ******************************************
 Gaussian 09:  ES64L-G09RevD.01 24-Apr-2013
                17-Feb-2020 
 ******************************************
 %NProcShared=24
 Will use up to   24 processors via shared memory.
 %mem=50GB
 %oldChk=checkpointCPCM_acet.chk
 %Chk=checkpointCPCMES.chk
 Copying data from "checkpointCPCM_acet.chk" to current chk file "checkpointCPCMES.chk".
 ----------------------------------------------------------------------
 #p CAM-B3LYP/6-311++G** nosym density=current geom=allcheck EmpiricalD
 ispersion=GD3 SCRF=(CPCM, solvent=acetonitrile) IOP(10/74=10) TD=(NSTA
 TES=10,ROOT=1,NONEQ) iop(3/119=0810000000) iop(3/120=0810000000)
 ----------------------------------------------------------------------
 1/29=7,30=1,38=1/1;
 2/12=2,15=1,40=1/2;
 3/5=4,6=6,7=1111,11=9,14=-4,16=1,25=1,30=1,70=2101,71=1,72=2,74=-40,119=810000000,120=810000000,124=31/1,2,8,3;
 4//1;
 5/5=2,38=5,53=2/2;
 8/6=1,10=2,107=1,108=10/1;
 9/8=1,15=1,41=10,42=1,70=2,73=1/14;
 10/5=4,13=10,31=1,74=10/2;
 6/7=2,8=2,9=2,10=2,22=-1/1;
 99/5=1,9=1/99;
 Leave Link    1 at Mon Feb 17 09:26:57 2020, MaxMem=  6710886400 cpu:        24.4
 (Enter /opt/sys/apps/gaussian09/D.01/g09/l101.exe)
 Structure from the checkpoint file:  "checkpointCPCMES.chk"
 ---
 DHE
 ---
 Charge =  0 Multiplicity = 1
 Redundant internal coordinates found in file.
 O,0,-7.1904384437,-1.8695594365,3.8146988509
 C,0,0.2791924543,-0.216438104,-0.2938369424
 C,0,0.096720103,-0.2097458461,1.2475226581
 C,0,1.832988958,-0.2576732461,-0.3870953408
 C,0,1.1213482138,0.8070742982,1.7623858554
 C,0,2.2990280836,0.6931450696,0.7578937932
 C,0,-0.477053289,-1.4511534487,-0.8143144319
 C,0,-1.3415009582,-0.1094840999,1.6700141105
 C,0,2.5103203614,0.0778829417,-1.7354992155
 C,0,-2.289004897,-0.9131939747,0.8892869245
 C,0,-3.7796177607,-0.9565355577,1.2980713
 C,0,-0.2878083969,1.0635446497,-0.9373358055
 C,0,-1.8626680508,-1.5565724314,-0.2195843246
 C,0,-4.0732641737,-0.2073847334,2.5964994229
 C,0,-4.2272150197,-2.43747377,1.4929904285
 C,0,-1.7590275171,0.5897165717,2.7485996246
 C,0,2.0773970288,-0.8568464238,-2.8800427674
 C,0,-4.596576989,-0.282622608,0.1601473202
 C,0,-5.4651991354,-0.3523459881,3.1620464016
 C,0,-3.130431194,0.5183308432,3.2207542674
 C,0,-5.6546512928,-2.5895202459,2.0336262689
 C,0,4.0098695606,0.0166149166,-1.5775132708
 C,0,-5.8326218581,-1.8259123247,3.3446214534
 C,0,4.8522794187,1.0335033088,-1.7489068731
 C,0,6.3478877854,0.9822656021,-1.563126279
 C,0,7.0931901018,1.3771396301,-2.8680734508
 C,0,6.708463,0.4498875806,-4.0301583894
 C,0,8.6191110978,1.3832743338,-2.691820875
 C,0,6.73526002,1.8773492281,-0.3689727846
 H,0,-7.4293705768,-2.7910100811,3.9674765961
 H,0,0.4349199276,-1.2052660085,1.5774618349
 H,0,2.1322076174,-1.2820899863,-0.1252034401
 H,0,1.4246944264,0.5997156635,2.7909466227
 H,0,0.6972681136,1.8149299936,1.7518570943
 H,0,2.5546432665,1.6735893083,0.3470701775
 H,0,3.2073781898,0.313501948,1.2292056154
 H,0,0.0984539165,-2.359009036,-0.5824588716
 H,0,-0.5712544455,-1.4326735946,-1.9038930062
 H,0,2.2432263653,1.1056362243,-2.0076487554
 H,0,-0.1548539589,1.0396437709,-2.0215781162
 H,0,-1.3562097248,1.1627184633,-0.7355266892
 H,0,0.2088546965,1.961607916,-0.5632490979
 H,0,-2.5638097871,-2.165090968,-0.7826376543
 H,0,-3.5258634878,-2.9108918014,2.1885862423
 H,0,-4.1352496469,-2.9713773898,0.5439024075
 H,0,-1.0511088587,1.175798471,3.3242619563
 H,0,2.6483944429,-0.638432724,-3.7865115264
 H,0,2.2533133378,-1.9045559354,-2.6147744662
 H,0,1.0186957305,-0.7435987547,-3.1177609145
 H,0,-4.2599741737,0.7474801729,0.0198075714
 H,0,-4.4432809812,-0.8209724474,-0.7782399155
 H,0,-5.6668951567,-0.2639269466,0.370096196
 H,0,-6.2123601836,0.0922004937,2.493211447
 H,0,-5.5398242116,0.1679484009,4.11994038
 H,0,-3.3808438295,1.0450685063,4.1374586225
 H,0,-5.8757518445,-3.6508119512,2.191352322
 H,0,-6.3879044358,-2.2152045035,1.3118019778
 H,0,4.4107543807,-0.9601576686,-1.2999210647
 H,0,-5.1712282543,-2.2615907802,4.1071736365
 H,0,4.4500106334,2.010542832,-2.0237380954
 H,0,6.6304492639,-0.0519989495,-1.3229434885
 H,0,6.7766273848,2.3979954739,-3.1254376416
 H,0,6.9992907828,-0.5832380607,-3.8071379032
 H,0,5.6326054017,0.4578781143,-4.2164621554
 H,0,7.2174777825,0.74932719,-4.9509874444
 H,0,8.9712304065,0.4037138573,-2.3486430833
 H,0,9.1131342353,1.5990389744,-3.6437513737
 H,0,8.9527124159,2.132609831,-1.9713289223
 H,0,6.1513782744,1.6069817029,0.5146386046
 H,0,7.7924504438,1.7819098105,-0.1128907561
 H,0,6.5347349093,2.9304937329,-0.5948028519
 Recover connectivity data from disk.
 NAtoms=     71 NQM=       71 NQMF=       0 NMMI=      0 NMMIF=      0
                NMic=       0 NMicF=      0.
                    Isotopes and Nuclear Properties:
 (Nuclear quadrupole moments (NQMom) in fm**2, nuclear magnetic moments (NMagM)
  in nuclear magnetons)

  Atom         1           2           3           4           5           6           7           8           9          10
 IAtWgt=          16          12          12          12          12          12          12          12          12          12
 AtmWgt=  15.9949146  12.0000000  12.0000000  12.0000000  12.0000000  12.0000000  12.0000000  12.0000000  12.0000000  12.0000000
 NucSpn=           0           0           0           0           0           0           0           0           0           0
 AtZEff=  -5.6000000  -3.6000000  -3.6000000  -3.6000000  -3.6000000  -3.6000000  -3.6000000  -3.6000000  -3.6000000  -3.6000000
 NQMom=    0.0000000   0.0000000   0.0000000   0.0000000   0.0000000   0.0000000   0.0000000   0.0000000   0.0000000   0.0000000
 NMagM=    0.0000000   0.0000000   0.0000000   0.0000000   0.0000000   0.0000000   0.0000000   0.0000000   0.0000000   0.0000000
 AtZNuc=   8.0000000   6.0000000   6.0000000   6.0000000   6.0000000   6.0000000   6.0000000   6.0000000   6.0000000   6.0000000

  Atom        11          12          13          14          15          16          17          18          19          20
 IAtWgt=          12          12          12          12          12          12          12          12          12          12
 AtmWgt=  12.0000000  12.0000000  12.0000000  12.0000000  12.0000000  12.0000000  12.0000000  12.0000000  12.0000000  12.0000000
 NucSpn=           0           0           0           0           0           0           0           0           0           0
 AtZEff=  -3.6000000  -3.6000000  -3.6000000  -3.6000000  -3.6000000  -3.6000000  -3.6000000  -3.6000000  -3.6000000  -3.6000000
 NQMom=    0.0000000   0.0000000   0.0000000   0.0000000   0.0000000   0.0000000   0.0000000   0.0000000   0.0000000   0.0000000
 NMagM=    0.0000000   0.0000000   0.0000000   0.0000000   0.0000000   0.0000000   0.0000000   0.0000000   0.0000000   0.0000000
 AtZNuc=   6.0000000   6.0000000   6.0000000   6.0000000   6.0000000   6.0000000   6.0000000   6.0000000   6.0000000   6.0000000

  Atom        21          22          23          24          25          26          27          28          29          30
 IAtWgt=          12          12          12          12          12          12          12          12          12           1
 AtmWgt=  12.0000000  12.0000000  12.0000000  12.0000000  12.0000000  12.0000000  12.0000000  12.0000000  12.0000000   1.0078250
 NucSpn=           0           0           0           0           0           0           0           0           0           1
 AtZEff=  -3.6000000  -3.6000000  -3.6000000  -3.6000000  -3.6000000  -3.6000000  -3.6000000  -3.6000000  -3.6000000  -1.0000000
 NQMom=    0.0000000   0.0000000   0.0000000   0.0000000   0.0000000   0.0000000   0.0000000   0.0000000   0.0000000   0.0000000
 NMagM=    0.0000000   0.0000000   0.0000000   0.0000000   0.0000000   0.0000000   0.0000000   0.0000000   0.0000000   2.7928460
 AtZNuc=   6.0000000   6.0000000   6.0000000   6.0000000   6.0000000   6.0000000   6.0000000   6.0000000   6.0000000   1.0000000

  Atom        31          32          33          34          35          36          37          38          39          40
 IAtWgt=           1           1           1           1           1           1           1           1           1           1
 AtmWgt=   1.0078250   1.0078250   1.0078250   1.0078250   1.0078250   1.0078250   1.0078250   1.0078250   1.0078250   1.0078250
 NucSpn=           1           1           1           1           1           1           1           1           1           1
 AtZEff=  -1.0000000  -1.0000000  -1.0000000  -1.0000000  -1.0000000  -1.0000000  -1.0000000  -1.0000000  -1.0000000  -1.0000000
 NQMom=    0.0000000   0.0000000   0.0000000   0.0000000   0.0000000   0.0000000   0.0000000   0.0000000   0.0000000   0.0000000
 NMagM=    2.7928460   2.7928460   2.7928460   2.7928460   2.7928460   2.7928460   2.7928460   2.7928460   2.7928460   2.7928460
 AtZNuc=   1.0000000   1.0000000   1.0000000   1.0000000   1.0000000   1.0000000   1.0000000   1.0000000   1.0000000   1.0000000

  Atom        41          42          43          44          45          46          47          48          49          50
 IAtWgt=           1           1           1           1           1           1           1           1           1           1
 AtmWgt=   1.0078250   1.0078250   1.0078250   1.0078250   1.0078250   1.0078250   1.0078250   1.0078250   1.0078250   1.0078250
 NucSpn=           1           1           1           1           1           1           1           1           1           1
 AtZEff=  -1.0000000  -1.0000000  -1.0000000  -1.0000000  -1.0000000  -1.0000000  -1.0000000  -1.0000000  -1.0000000  -1.0000000
 NQMom=    0.0000000   0.0000000   0.0000000   0.0000000   0.0000000   0.0000000   0.0000000   0.0000000   0.0000000   0.0000000
 NMagM=    2.7928460   2.7928460   2.7928460   2.7928460   2.7928460   2.7928460   2.7928460   2.7928460   2.7928460   2.7928460
 AtZNuc=   1.0000000   1.0000000   1.0000000   1.0000000   1.0000000   1.0000000   1.0000000   1.0000000   1.0000000   1.0000000

  Atom        51          52          53          54          55          56          57          58          59          60
 IAtWgt=           1           1           1           1           1           1           1           1           1           1
 AtmWgt=   1.0078250   1.0078250   1.0078250   1.0078250   1.0078250   1.0078250   1.0078250   1.0078250   1.0078250   1.0078250
 NucSpn=           1           1           1           1           1           1           1           1           1           1
 AtZEff=  -1.0000000  -1.0000000  -1.0000000  -1.0000000  -1.0000000  -1.0000000  -1.0000000  -1.0000000  -1.0000000  -1.0000000
 NQMom=    0.0000000   0.0000000   0.0000000   0.0000000   0.0000000   0.0000000   0.0000000   0.0000000   0.0000000   0.0000000
 NMagM=    2.7928460   2.7928460   2.7928460   2.7928460   2.7928460   2.7928460   2.7928460   2.7928460   2.7928460   2.7928460
 AtZNuc=   1.0000000   1.0000000   1.0000000   1.0000000   1.0000000   1.0000000   1.0000000   1.0000000   1.0000000   1.0000000

  Atom        61          62          63          64          65          66          67          68          69          70
 IAtWgt=           1           1           1           1           1           1           1           1           1           1
 AtmWgt=   1.0078250   1.0078250   1.0078250   1.0078250   1.0078250   1.0078250   1.0078250   1.0078250   1.0078250   1.0078250
 NucSpn=           1           1           1           1           1           1           1           1           1           1
 AtZEff=  -1.0000000  -1.0000000  -1.0000000  -1.0000000  -1.0000000  -1.0000000  -1.0000000  -1.0000000  -1.0000000  -1.0000000
 NQMom=    0.0000000   0.0000000   0.0000000   0.0000000   0.0000000   0.0000000   0.0000000   0.0000000   0.0000000   0.0000000
 NMagM=    2.7928460   2.7928460   2.7928460   2.7928460   2.7928460   2.7928460   2.7928460   2.7928460   2.7928460   2.7928460
 AtZNuc=   1.0000000   1.0000000   1.0000000   1.0000000   1.0000000   1.0000000   1.0000000   1.0000000   1.0000000   1.0000000

  Atom        71
 IAtWgt=           1
 AtmWgt=   1.0078250
 NucSpn=           1
 AtZEff=  -1.0000000
 NQMom=    0.0000000
 NMagM=    2.7928460
 AtZNuc=   1.0000000
 Leave Link  101 at Mon Feb 17 09:26:57 2020, MaxMem=  6710886400 cpu:         6.6
 (Enter /opt/sys/apps/gaussian09/D.01/g09/l202.exe)
 Symmetry turned off by external request.
 Stoichiometry    C28H42O
 Framework group  C1[X(C28H42O)]
 Deg. of freedom   207
 Full point group                 C1      NOp   1
                          Input orientation:                          
 ---------------------------------------------------------------------
 Center     Atomic      Atomic             Coordinates (Angstroms)
 Number     Number       Type             X           Y           Z
 ---------------------------------------------------------------------
      1          8           0       -7.190438   -1.869559    3.814699
      2          6           0        0.279192   -0.216438   -0.293837
      3          6           0        0.096720   -0.209746    1.247523
      4          6           0        1.832989   -0.257673   -0.387095
      5          6           0        1.121348    0.807074    1.762386
      6          6           0        2.299028    0.693145    0.757894
      7          6           0       -0.477053   -1.451153   -0.814314
      8          6           0       -1.341501   -0.109484    1.670014
      9          6           0        2.510320    0.077883   -1.735499
     10          6           0       -2.289005   -0.913194    0.889287
     11          6           0       -3.779618   -0.956536    1.298071
     12          6           0       -0.287808    1.063545   -0.937336
     13          6           0       -1.862668   -1.556572   -0.219584
     14          6           0       -4.073264   -0.207385    2.596499
     15          6           0       -4.227215   -2.437474    1.492990
     16          6           0       -1.759028    0.589717    2.748600
     17          6           0        2.077397   -0.856846   -2.880043
     18          6           0       -4.596577   -0.282623    0.160147
     19          6           0       -5.465199   -0.352346    3.162046
     20          6           0       -3.130431    0.518331    3.220754
     21          6           0       -5.654651   -2.589520    2.033626
     22          6           0        4.009870    0.016615   -1.577513
     23          6           0       -5.832622   -1.825912    3.344621
     24          6           0        4.852279    1.033503   -1.748907
     25          6           0        6.347888    0.982266   -1.563126
     26          6           0        7.093190    1.377140   -2.868073
     27          6           0        6.708463    0.449888   -4.030158
     28          6           0        8.619111    1.383274   -2.691821
     29          6           0        6.735260    1.877349   -0.368973
     30          1           0       -7.429371   -2.791010    3.967477
     31          1           0        0.434920   -1.205266    1.577462
     32          1           0        2.132208   -1.282090   -0.125203
     33          1           0        1.424694    0.599716    2.790947
     34          1           0        0.697268    1.814930    1.751857
     35          1           0        2.554643    1.673589    0.347070
     36          1           0        3.207378    0.313502    1.229206
     37          1           0        0.098454   -2.359009   -0.582459
     38          1           0       -0.571254   -1.432674   -1.903893
     39          1           0        2.243226    1.105636   -2.007649
     40          1           0       -0.154854    1.039644   -2.021578
     41          1           0       -1.356210    1.162718   -0.735527
     42          1           0        0.208855    1.961608   -0.563249
     43          1           0       -2.563810   -2.165091   -0.782638
     44          1           0       -3.525863   -2.910892    2.188586
     45          1           0       -4.135250   -2.971377    0.543902
     46          1           0       -1.051109    1.175798    3.324262
     47          1           0        2.648394   -0.638433   -3.786512
     48          1           0        2.253313   -1.904556   -2.614774
     49          1           0        1.018696   -0.743599   -3.117761
     50          1           0       -4.259974    0.747480    0.019808
     51          1           0       -4.443281   -0.820972   -0.778240
     52          1           0       -5.666895   -0.263927    0.370096
     53          1           0       -6.212360    0.092200    2.493211
     54          1           0       -5.539824    0.167948    4.119940
     55          1           0       -3.380844    1.045069    4.137459
     56          1           0       -5.875752   -3.650812    2.191352
     57          1           0       -6.387904   -2.215205    1.311802
     58          1           0        4.410754   -0.960158   -1.299921
     59          1           0       -5.171228   -2.261591    4.107174
     60          1           0        4.450011    2.010543   -2.023738
     61          1           0        6.630449   -0.051999   -1.322943
     62          1           0        6.776627    2.397995   -3.125438
     63          1           0        6.999291   -0.583238   -3.807138
     64          1           0        5.632605    0.457878   -4.216462
     65          1           0        7.217478    0.749327   -4.950987
     66          1           0        8.971230    0.403714   -2.348643
     67          1           0        9.113134    1.599039   -3.643751
     68          1           0        8.952712    2.132610   -1.971329
     69          1           0        6.151378    1.606982    0.514639
     70          1           0        7.792450    1.781910   -0.112891
     71          1           0        6.534735    2.930494   -0.594803
 ---------------------------------------------------------------------
 Rotational constants (GHZ):      0.6081679      0.0519946      0.0495933
 Leave Link  202 at Mon Feb 17 09:26:57 2020, MaxMem=  6710886400 cpu:         0.1
 (Enter /opt/sys/apps/gaussian09/D.01/g09/l301.exe)
 Standard basis: 6-311++G(d,p) (5D, 7F)
 Ernie: Thresh=  0.10000D-02 Tol=  0.10000D-05 Strict=F.
   932 basis functions,  1422 primitive gaussians,   961 cartesian basis functions
   109 alpha electrons      109 beta electrons
       nuclear repulsion energy      2804.2287178552 Hartrees.
 IExCor=20419 DFT=T Ex+Corr=CAM-B3LYP ExCW=0 ScaHFX=  1.000000
 ScaDFX=  1.000000  1.000000  1.000000  0.810000 ScalE2=  1.000000  1.000000
 IRadAn=      0 IRanWt=     -1 IRanGd=            0 ICorTp=0 IEmpDi=131
  HFx wShort=  0.000000 wLong=  0.330000 cFull=  0.190000 cShort=  0.000000 cLong=  0.810000
  DFx wShort=  0.000000 wLong=  0.330000 cFull=  0.190000 cShort=  0.000000 cLong=  0.810000
 NAtoms=   71 NActive=   71 NUniq=   71 SFac= 1.00D+00 NAtFMM=   60 NAOKFM=T Big=T
 Integral buffers will be    131072 words long.
 Raffenetti 1 integral format.
 Two-electron integral symmetry is turned off.
 R6Disp:  Grimme-D3 Dispersion energy=       -0.0618131714 Hartrees.
 Nuclear repulsion after empirical dispersion term =     2804.1669046838 Hartrees.
 ------------------------------------------------------------------------------
 Polarizable Continuum Model (PCM)
 =================================
 Model                : C-PCM.
 Atomic radii         : UFF (Universal Force Field).
 Polarization charges : Total charges.
 Charge compensation  : None.
 Solution method      : On-the-fly selection.
 Cavity type          : Scaled VdW (van der Waals Surface) (Alpha=1.100).
 Cavity algorithm     : GePol (No added spheres)
                        Default sphere list used, NSphG=   71.
                        Lebedev-Laikov grids with approx.  5.0 points / Ang**2.
                        Smoothing algorithm: Karplus/York (Gamma=1.0000).
                        Polarization charges: spherical gaussians, with
                                              point-specific exponents (IZeta= 3).
                        Self-potential: point-specific (ISelfS= 7).
                        Self-field    : sphere-specific E.n sum rule (ISelfD= 2).
 1st derivatives      : Analytical E(r).r(x)/FMM algorithm (CHGder, D1EAlg=3).
                        Cavity 1st derivative terms included.
 Solvent              : Acetonitrile, Eps=  35.688000 Eps(inf)=   1.806874
 ------------------------------------------------------------------------------
 GePol: Number of generator spheres                  =      71
 GePol: Total number of spheres                      =      71
 GePol: Number of exposed spheres                    =      70 ( 98.59%)
 GePol: Number of points                             =    4065
 GePol: Average weight of points                     =       0.13
 GePol: Minimum weight of points                     =   0.17D-11
 GePol: Maximum weight of points                     =    0.20577
 GePol: Number of points with low weight             =     311
 GePol: Fraction of low-weight points (<1% of avg)   =       7.65%
 GePol: Cavity surface area                          =    534.342 Ang**2
 GePol: Cavity volume                                =    622.686 Ang**3
 Leave Link  301 at Mon Feb 17 09:26:57 2020, MaxMem=  6710886400 cpu:         1.9
 (Enter /opt/sys/apps/gaussian09/D.01/g09/l302.exe)
 NPDir=0 NMtPBC=     1 NCelOv=     1 NCel=       1 NClECP=     1 NCelD=      1
         NCelK=      1 NCelE2=     1 NClLst=     1 CellRange=     0.0.
 One-electron integrals computed using PRISM.
 NBasis=   932 RedAO= T EigKep=  1.33D-06  NBF=   932
 NBsUse=   923 1.00D-06 EigRej=  7.46D-07 NBFU=   923
 Precomputing XC quadrature grid using
 IXCGrd= 4 IRadAn=           0 IRanWt=          -1 IRanGd=           0 AccXCQ= 0.00D+00.
 Generated NRdTot=       0 NPtTot=           0 NUsed=           0 NTot=          32
 NSgBfM=   837   837   847   855   867 MxSgAt=    71 MxSgA2=    71.
 Leave Link  302 at Mon Feb 17 09:26:59 2020, MaxMem=  6710886400 cpu:        48.4
 (Enter /opt/sys/apps/gaussian09/D.01/g09/l308.exe)
 Leave Link  308 at Mon Feb 17 09:27:00 2020, MaxMem=  6710886400 cpu:         5.3
 (Enter /opt/sys/apps/gaussian09/D.01/g09/l303.exe)
 DipDrv:  MaxL=1.
 Leave Link  303 at Mon Feb 17 09:27:00 2020, MaxMem=  6710886400 cpu:         4.8
 (Enter /opt/sys/apps/gaussian09/D.01/g09/l401.exe)
 ExpMin= 3.60D-02 ExpMax= 8.59D+03 ExpMxC= 1.30D+03 IAcc=3 IRadAn=         5 AccDes= 0.00D+00
 Harris functional with IExCor=20419 and IRadAn=       5 diagonalized for initial guess.
 HarFok:  IExCor=20419 AccDes= 0.00D+00 IRadAn=         5 IDoV= 1 UseB2=F ITyADJ=14
 ICtDFT=  3500011 ScaDFX=  1.000000  1.000000  1.000000  1.000000
 FoFCou: FMM=F IPFlag=           0 FMFlag=      100000 FMFlg1=        2001
         NFxFlg=           0 DoJE=T BraDBF=F KetDBF=T FulRan=T
         wScrn=  0.000000 ICntrl=     500 IOpCl=  0 I1Cent=   200000004 NGrid=           0
         NMat0=    1 NMatS0=      1 NMatT0=    0 NMatD0=    1 NMtDS0=    0 NMtDT0=    0
 Symmetry not used in FoFCou.
 Harris En= -1104.07381717786    
 JPrj=0 DoOrth=F DoCkMO=F.
 Leave Link  401 at Mon Feb 17 09:27:08 2020, MaxMem=  6710886400 cpu:       178.4
 (Enter /opt/sys/apps/gaussian09/D.01/g09/l502.exe)
 Closed shell SCF:
 Using DIIS extrapolation, IDIIS=  1040.
 Two-electron integral symmetry not used.
 IVT=     2818085 IEndB=     2818085 NGot=  6710886400 MDV=  6709009438
 LenX=  6709009438 LenY=  6708084956
 Requested convergence on RMS density matrix=1.00D-08 within 128 cycles.
 Requested convergence on MAX density matrix=1.00D-06.
 Requested convergence on             energy=1.00D-06.
 No special actions if energy rises.
 Fock matrices will be formed incrementally for  20 cycles.

 Cycle   1  Pass 1  IDiag  1:
 FoFJK:  IHMeth= 1 ICntrl=       0 DoSepK=T KAlg= 0 I1Cent=   0 FoldK=F
 IRaf=         1 NMat=   1 IRICut=       1 DoRegI=T DoRafI=F ISym2E= 0.
 FoFCou: FMM=T IPFlag=           0 FMFlag=      100000 FMFlg1=        2001
         NFxFlg=           0 DoJE=T BraDBF=F KetDBF=F FulRan=T
         wScrn=  0.000000 ICntrl=     500 IOpCl=  0 I1Cent=           0 NGrid=           0
         NMat0=    1 NMatS0=      1 NMatT0=    0 NMatD0=    1 NMtDS0=    0 NMtDT0=    0
 Symmetry not used in FoFCou.
 FMM levels:  10  Number of levels for PrismC:   9
 Inv3:  Mode=1 IEnd=    49572675.
 Iteration    1 A*A^-1 deviation from unit magnitude is 7.55D-15 for   4054.
 Iteration    1 A*A^-1 deviation from orthogonality  is 3.51D-15 for   3729   1967.
 Iteration    1 A^-1*A deviation from unit magnitude is 7.44D-15 for   4024.
 Iteration    1 A^-1*A deviation from orthogonality  is 3.87D-15 for   2858     97.
 E= -1165.92986296593    
 DIIS: error= 3.59D-02 at cycle   1 NSaved=   1.
 NSaved= 1 IEnMin= 1 EnMin= -1165.92986296593     IErMin= 1 ErrMin= 3.59D-02
 ErrMax= 3.59D-02  0.00D+00 EMaxC= 1.00D-01 BMatC= 1.93D+00 BMatP= 1.93D+00
 IDIUse=3 WtCom= 6.41D-01 WtEn= 3.59D-01
 Coeff-Com:  0.100D+01
 Coeff-En:   0.100D+01
 Coeff:      0.100D+01
 Gap=     0.296 Goal=   None    Shift=    0.000
 GapD=    0.296 DampG=1.000 DampE=0.500 DampFc=0.5000 IDamp=-1.
 Damping current iteration by 5.00D-01
 RMSDP=9.05D-03 MaxDP=1.69D+00              OVMax= 6.04D-02

 Cycle   2  Pass 1  IDiag  1:
 RMSU=  3.18D-03    CP:  9.01D-01
 E= -1166.08908573790     Delta-E=       -0.159222771969 Rises=F Damp=T
 DIIS: error= 1.67D-02 at cycle   2 NSaved=   2.
 NSaved= 2 IEnMin= 2 EnMin= -1166.08908573790     IErMin= 2 ErrMin= 1.67D-02
 ErrMax= 1.67D-02  0.00D+00 EMaxC= 1.00D-01 BMatC= 4.26D-01 BMatP= 1.93D+00
 IDIUse=3 WtCom= 8.33D-01 WtEn= 1.67D-01
 Coeff-Com: -0.784D+00 0.178D+01
 Coeff-En:   0.000D+00 0.100D+01
 Coeff:     -0.653D+00 0.165D+01
 Gap=     0.320 Goal=   None    Shift=    0.000
 RMSDP=5.62D-03 MaxDP=9.91D-01 DE=-1.59D-01 OVMax= 6.14D-02

 Cycle   3  Pass 1  IDiag  1:
 RMSU=  3.49D-03    CP:  8.95D-01  2.38D+00
 E= -1166.22302572416     Delta-E=       -0.133939986263 Rises=F Damp=F
 DIIS: error= 7.36D-03 at cycle   3 NSaved=   3.
 NSaved= 3 IEnMin= 3 EnMin= -1166.22302572416     IErMin= 3 ErrMin= 7.36D-03
 ErrMax= 7.36D-03  0.00D+00 EMaxC= 1.00D-01 BMatC= 3.24D-02 BMatP= 4.26D-01
 IDIUse=3 WtCom= 9.26D-01 WtEn= 7.36D-02
 Coeff-Com: -0.353D+00 0.749D+00 0.605D+00
 Coeff-En:   0.000D+00 0.000D+00 0.100D+01
 Coeff:     -0.327D+00 0.693D+00 0.634D+00
 Gap=     0.312 Goal=   None    Shift=    0.000
 RMSDP=9.99D-04 MaxDP=1.15D-01 DE=-1.34D-01 OVMax= 2.26D-02

 Cycle   4  Pass 1  IDiag  1:
 RMSU=  7.80D-04    CP:  8.80D-01  2.50D+00  9.40D-01
 E= -1166.24584027764     Delta-E=       -0.022814553479 Rises=F Damp=F
 DIIS: error= 1.58D-03 at cycle   4 NSaved=   4.
 NSaved= 4 IEnMin= 4 EnMin= -1166.24584027764     IErMin= 4 ErrMin= 1.58D-03
 ErrMax= 1.58D-03  0.00D+00 EMaxC= 1.00D-01 BMatC= 1.41D-03 BMatP= 3.24D-02
 IDIUse=3 WtCom= 9.84D-01 WtEn= 1.58D-02
 Coeff-Com: -0.118D+00 0.249D+00 0.277D+00 0.591D+00
 Coeff-En:   0.000D+00 0.000D+00 0.000D+00 0.100D+01
 Coeff:     -0.116D+00 0.245D+00 0.273D+00 0.598D+00
 Gap=     0.313 Goal=   None    Shift=    0.000
 RMSDP=2.91D-04 MaxDP=4.70D-02 DE=-2.28D-02 OVMax= 4.24D-03

 Cycle   5  Pass 1  IDiag  1:
 RMSU=  1.76D-04    CP:  8.83D-01  2.54D+00  9.87D-01  9.30D-01
 E= -1166.24681246926     Delta-E=       -0.000972191616 Rises=F Damp=F
 DIIS: error= 1.58D-04 at cycle   5 NSaved=   5.
 NSaved= 5 IEnMin= 5 EnMin= -1166.24681246926     IErMin= 5 ErrMin= 1.58D-04
 ErrMax= 1.58D-04  0.00D+00 EMaxC= 1.00D-01 BMatC= 4.22D-05 BMatP= 1.41D-03
 IDIUse=3 WtCom= 9.98D-01 WtEn= 1.58D-03
 Coeff-Com:  0.436D-01-0.930D-01-0.634D-01 0.588D-01 0.105D+01
 Coeff-En:   0.000D+00 0.000D+00 0.000D+00 0.000D+00 0.100D+01
 Coeff:      0.435D-01-0.928D-01-0.633D-01 0.587D-01 0.105D+01
 Gap=     0.314 Goal=   None    Shift=    0.000
 RMSDP=3.73D-04 MaxDP=7.86D-02 DE=-9.72D-04 OVMax= 3.84D-03

 Cycle   6  Pass 1  IDiag  1:
 RMSU=  6.32D-05    CP:  8.88D-01  2.59D+00  1.06D+00  1.09D+00  1.27D+00
 E= -1166.24690289567     Delta-E=       -0.000090426413 Rises=F Damp=F
 DIIS: error= 5.80D-05 at cycle   6 NSaved=   6.
 NSaved= 6 IEnMin= 6 EnMin= -1166.24690289567     IErMin= 6 ErrMin= 5.80D-05
 ErrMax= 5.80D-05  0.00D+00 EMaxC= 1.00D-01 BMatC= 3.51D-06 BMatP= 4.22D-05
 IDIUse=1 WtCom= 1.00D+00 WtEn= 0.00D+00
 Coeff-Com:  0.164D-01-0.350D-01-0.276D-01-0.272D-02 0.289D+00 0.760D+00
 Coeff:      0.164D-01-0.350D-01-0.276D-01-0.272D-02 0.289D+00 0.760D+00
 Gap=     0.314 Goal=   None    Shift=    0.000
 RMSDP=5.85D-05 MaxDP=9.94D-03 DE=-9.04D-05 OVMax= 1.13D-03

 Cycle   7  Pass 1  IDiag  1:
 RMSU=  2.28D-05    CP:  8.89D-01  2.59D+00  1.07D+00  1.11D+00  1.34D+00
                    CP:  9.94D-01
 E= -1166.24690958863     Delta-E=       -0.000006692957 Rises=F Damp=F
 DIIS: error= 2.46D-05 at cycle   7 NSaved=   7.
 NSaved= 7 IEnMin= 7 EnMin= -1166.24690958863     IErMin= 7 ErrMin= 2.46D-05
 ErrMax= 2.46D-05  0.00D+00 EMaxC= 1.00D-01 BMatC= 7.87D-07 BMatP= 3.51D-06
 IDIUse=1 WtCom= 1.00D+00 WtEn= 0.00D+00
 Coeff-Com: -0.240D-02 0.518D-02 0.239D-02-0.962D-02-0.100D+00 0.239D+00
 Coeff-Com:  0.866D+00
 Coeff:     -0.240D-02 0.518D-02 0.239D-02-0.962D-02-0.100D+00 0.239D+00
 Coeff:      0.866D+00
 Gap=     0.314 Goal=   None    Shift=    0.000
 RMSDP=2.33D-05 MaxDP=3.89D-03 DE=-6.69D-06 OVMax= 7.22D-04

 Cycle   8  Pass 1  IDiag  1:
 RMSU=  1.21D-05    CP:  8.89D-01  2.60D+00  1.07D+00  1.12D+00  1.33D+00
                    CP:  1.16D+00  1.03D+00
 E= -1166.24691142198     Delta-E=       -0.000001833349 Rises=F Damp=F
 DIIS: error= 1.08D-05 at cycle   8 NSaved=   8.
 NSaved= 8 IEnMin= 8 EnMin= -1166.24691142198     IErMin= 8 ErrMin= 1.08D-05
 ErrMax= 1.08D-05  0.00D+00 EMaxC= 1.00D-01 BMatC= 8.21D-08 BMatP= 7.87D-07
 IDIUse=1 WtCom= 1.00D+00 WtEn= 0.00D+00
 Coeff-Com: -0.277D-02 0.593D-02 0.423D-02-0.290D-02-0.663D-01-0.173D-01
 Coeff-Com:  0.223D+00 0.856D+00
 Coeff:     -0.277D-02 0.593D-02 0.423D-02-0.290D-02-0.663D-01-0.173D-01
 Coeff:      0.223D+00 0.856D+00
 Gap=     0.314 Goal=   None    Shift=    0.000
 RMSDP=5.42D-06 MaxDP=5.12D-04 DE=-1.83D-06 OVMax= 3.50D-04

 Cycle   9  Pass 1  IDiag  1:
 RMSU=  3.46D-06    CP:  8.89D-01  2.60D+00  1.07D+00  1.12D+00  1.33D+00
                    CP:  1.19D+00  1.15D+00  1.15D+00
 E= -1166.24691169638     Delta-E=       -0.000000274398 Rises=F Damp=F
 DIIS: error= 3.96D-06 at cycle   9 NSaved=   9.
 NSaved= 9 IEnMin= 9 EnMin= -1166.24691169638     IErMin= 9 ErrMin= 3.96D-06
 ErrMax= 3.96D-06  0.00D+00 EMaxC= 1.00D-01 BMatC= 1.75D-08 BMatP= 8.21D-08
 IDIUse=1 WtCom= 1.00D+00 WtEn= 0.00D+00
 Coeff-Com: -0.281D-03 0.590D-03 0.691D-03 0.819D-03 0.200D-02-0.435D-01
 Coeff-Com: -0.127D+00 0.229D+00 0.937D+00
 Coeff:     -0.281D-03 0.590D-03 0.691D-03 0.819D-03 0.200D-02-0.435D-01
 Coeff:     -0.127D+00 0.229D+00 0.937D+00
 Gap=     0.314 Goal=   None    Shift=    0.000
 RMSDP=3.59D-06 MaxDP=2.69D-04 DE=-2.74D-07 OVMax= 1.69D-04

 Cycle  10  Pass 1  IDiag  1:
 RMSU=  1.35D-06    CP:  8.89D-01  2.60D+00  1.07D+00  1.12D+00  1.33D+00
                    CP:  1.20D+00  1.18D+00  1.36D+00  1.18D+00
 E= -1166.24691174717     Delta-E=       -0.000000050788 Rises=F Damp=F
 DIIS: error= 1.82D-06 at cycle  10 NSaved=  10.
 NSaved=10 IEnMin=10 EnMin= -1166.24691174717     IErMin=10 ErrMin= 1.82D-06
 ErrMax= 1.82D-06  0.00D+00 EMaxC= 1.00D-01 BMatC= 1.10D-09 BMatP= 1.75D-08
 IDIUse=1 WtCom= 1.00D+00 WtEn= 0.00D+00
 Coeff-Com:  0.205D-03-0.442D-03-0.273D-03 0.455D-03 0.662D-02-0.339D-02
 Coeff-Com: -0.489D-01-0.274D-01 0.135D+00 0.939D+00
 Coeff:      0.205D-03-0.442D-03-0.273D-03 0.455D-03 0.662D-02-0.339D-02
 Coeff:     -0.489D-01-0.274D-01 0.135D+00 0.939D+00
 Gap=     0.314 Goal=   None    Shift=    0.000
 RMSDP=1.25D-06 MaxDP=1.57D-04 DE=-5.08D-08 OVMax= 5.71D-05

 Cycle  11  Pass 1  IDiag  1:
 RMSU=  4.14D-07    CP:  8.89D-01  2.60D+00  1.07D+00  1.12D+00  1.32D+00
                    CP:  1.20D+00  1.17D+00  1.42D+00  1.32D+00  1.31D+00
 E= -1166.24691175116     Delta-E=       -0.000000003998 Rises=F Damp=F
 DIIS: error= 8.97D-07 at cycle  11 NSaved=  11.
 NSaved=11 IEnMin=11 EnMin= -1166.24691175116     IErMin=11 ErrMin= 8.97D-07
 ErrMax= 8.97D-07  0.00D+00 EMaxC= 1.00D-01 BMatC= 2.68D-10 BMatP= 1.10D-09
 IDIUse=1 WtCom= 1.00D+00 WtEn= 0.00D+00
 Coeff-Com:  0.791D-04-0.168D-03-0.147D-03 0.121D-04 0.104D-02 0.497D-02
 Coeff-Com:  0.165D-02-0.220D-01-0.964D-01 0.193D+00 0.918D+00
 Coeff:      0.791D-04-0.168D-03-0.147D-03 0.121D-04 0.104D-02 0.497D-02
 Coeff:      0.165D-02-0.220D-01-0.964D-01 0.193D+00 0.918D+00
 Gap=     0.314 Goal=   None    Shift=    0.000
 RMSDP=5.01D-07 MaxDP=6.01D-05 DE=-4.00D-09 OVMax= 2.51D-05

 Cycle  12  Pass 1  IDiag  1:
 RMSU=  2.27D-07    CP:  8.89D-01  2.60D+00  1.07D+00  1.12D+00  1.32D+00
                    CP:  1.20D+00  1.17D+00  1.43D+00  1.35D+00  1.51D+00
                    CP:  1.12D+00
 E= -1166.24691175211     Delta-E=       -0.000000000944 Rises=F Damp=F
 DIIS: error= 4.25D-07 at cycle  12 NSaved=  12.
 NSaved=12 IEnMin=12 EnMin= -1166.24691175211     IErMin=12 ErrMin= 4.25D-07
 ErrMax= 4.25D-07  0.00D+00 EMaxC= 1.00D-01 BMatC= 5.76D-11 BMatP= 2.68D-10
 IDIUse=1 WtCom= 1.00D+00 WtEn= 0.00D+00
 Coeff-Com: -0.352D-04 0.762D-04 0.399D-04-0.972D-04-0.141D-02 0.239D-02
 Coeff-Com:  0.107D-01 0.609D-02-0.649D-01-0.171D+00 0.209D+00 0.101D+01
 Coeff:     -0.352D-04 0.762D-04 0.399D-04-0.972D-04-0.141D-02 0.239D-02
 Coeff:      0.107D-01 0.609D-02-0.649D-01-0.171D+00 0.209D+00 0.101D+01
 Gap=     0.314 Goal=   None    Shift=    0.000
 RMSDP=3.41D-07 MaxDP=4.63D-05 DE=-9.44D-10 OVMax= 1.60D-05

 Cycle  13  Pass 1  IDiag  1:
 RMSU=  1.35D-07    CP:  8.89D-01  2.60D+00  1.07D+00  1.12D+00  1.32D+00
                    CP:  1.20D+00  1.17D+00  1.45D+00  1.35D+00  1.65D+00
                    CP:  1.36D+00  1.37D+00
 E= -1166.24691175224     Delta-E=       -0.000000000129 Rises=F Damp=F
 DIIS: error= 1.65D-07 at cycle  13 NSaved=  13.
 NSaved=13 IEnMin=13 EnMin= -1166.24691175224     IErMin=13 ErrMin= 1.65D-07
 ErrMax= 1.65D-07  0.00D+00 EMaxC= 1.00D-01 BMatC= 6.86D-12 BMatP= 5.76D-11
 IDIUse=1 WtCom= 1.00D+00 WtEn= 0.00D+00
 Coeff-Com: -0.128D-04 0.272D-04 0.234D-04-0.186D-04-0.257D-03-0.299D-03
 Coeff-Com:  0.129D-03 0.553D-02 0.502D-02-0.412D-01-0.111D+00 0.129D+00
 Coeff-Com:  0.101D+01
 Coeff:     -0.128D-04 0.272D-04 0.234D-04-0.186D-04-0.257D-03-0.299D-03
 Coeff:      0.129D-03 0.553D-02 0.502D-02-0.412D-01-0.111D+00 0.129D+00
 Coeff:      0.101D+01
 Gap=     0.314 Goal=   None    Shift=    0.000
 RMSDP=1.18D-07 MaxDP=9.10D-06 DE=-1.29D-10 OVMax= 5.80D-06

 Cycle  14  Pass 1  IDiag  1:
 RMSU=  7.90D-08    CP:  8.89D-01  2.60D+00  1.07D+00  1.12D+00  1.32D+00
                    CP:  1.20D+00  1.16D+00  1.45D+00  1.35D+00  1.66D+00
                    CP:  1.41D+00  1.69D+00  1.19D+00
 E= -1166.24691175266     Delta-E=       -0.000000000425 Rises=F Damp=F
 DIIS: error= 3.55D-08 at cycle  14 NSaved=  14.
 NSaved=14 IEnMin=14 EnMin= -1166.24691175266     IErMin=14 ErrMin= 3.55D-08
 ErrMax= 3.55D-08  0.00D+00 EMaxC= 1.00D-01 BMatC= 1.70D-12 BMatP= 6.86D-12
 IDIUse=1 WtCom= 1.00D+00 WtEn= 0.00D+00
 Coeff-Com:  0.202D-05-0.450D-05 0.102D-05 0.949D-05 0.159D-03-0.492D-03
 Coeff-Com: -0.200D-02 0.117D-02 0.130D-01 0.148D-01-0.845D-01-0.136D+00
 Coeff-Com:  0.365D+00 0.829D+00
 Coeff:      0.202D-05-0.450D-05 0.102D-05 0.949D-05 0.159D-03-0.492D-03
 Coeff:     -0.200D-02 0.117D-02 0.130D-01 0.148D-01-0.845D-01-0.136D+00
 Coeff:      0.365D+00 0.829D+00
 Gap=     0.314 Goal=   None    Shift=    0.000
 RMSDP=1.78D-07 MaxDP=1.41D-05 DE=-4.25D-10 OVMax= 2.02D-06

 Cycle  15  Pass 1  IDiag  1:
 RMSU=  1.16D-07    CP:  8.89D-01  2.60D+00  1.07D+00  1.12D+00  1.32D+00
                    CP:  1.20D+00  1.16D+00  1.45D+00  1.35D+00  1.70D+00
                    CP:  1.43D+00  1.87D+00  1.87D+00  1.31D+00
 E= -1166.24691175250     Delta-E=        0.000000000157 Rises=F Damp=F
 DIIS: error= 3.61D-08 at cycle  15 NSaved=  15.
 NSaved=15 IEnMin=14 EnMin= -1166.24691175266     IErMin=14 ErrMin= 3.55D-08
 ErrMax= 3.61D-08  0.00D+00 EMaxC= 1.00D-01 BMatC= 2.41D-13 BMatP= 1.70D-12
 IDIUse=1 WtCom= 1.00D+00 WtEn= 0.00D+00
 Coeff-Com:  0.210D-05-0.455D-05-0.208D-05 0.687D-05 0.852D-04-0.136D-03
 Coeff-Com: -0.802D-03-0.871D-04 0.418D-02 0.109D-01-0.164D-01-0.640D-01
 Coeff-Com:  0.199D-01 0.306D+00 0.740D+00
 Coeff:      0.210D-05-0.455D-05-0.208D-05 0.687D-05 0.852D-04-0.136D-03
 Coeff:     -0.802D-03-0.871D-04 0.418D-02 0.109D-01-0.164D-01-0.640D-01
 Coeff:      0.199D-01 0.306D+00 0.740D+00
 Gap=     0.314 Goal=   None    Shift=    0.000
 RMSDP=1.93D-07 MaxDP=1.45D-05 DE= 1.57D-10 OVMax= 3.60D-07

 Cycle  16  Pass 1  IDiag  1:
 RMSU=  1.36D-07    CP:  8.89D-01  2.60D+00  1.07D+00  1.12D+00  1.32D+00
                    CP:  1.20D+00  1.16D+00  1.45D+00  1.35D+00  1.72D+00
                    CP:  1.46D+00  1.93D+00  2.08D+00  2.42D+00  1.54D+00
 E= -1166.24691175252     Delta-E=       -0.000000000018 Rises=F Damp=F
 DIIS: error= 3.16D-08 at cycle  16 NSaved=  16.
 NSaved=16 IEnMin=14 EnMin= -1166.24691175266     IErMin=16 ErrMin= 3.16D-08
 ErrMax= 3.16D-08  0.00D+00 EMaxC= 1.00D-01 BMatC= 2.44D-13 BMatP= 2.41D-13
 IDIUse=1 WtCom= 1.00D+00 WtEn= 0.00D+00
 Coeff-Com:  0.123D-05-0.264D-05-0.147D-05 0.414D-05 0.432D-04-0.464D-04
 Coeff-Com: -0.374D-03-0.152D-03 0.165D-02 0.623D-02-0.318D-02-0.318D-01
 Coeff-Com: -0.220D-01 0.131D+00 0.560D+00 0.359D+00
 Coeff:      0.123D-05-0.264D-05-0.147D-05 0.414D-05 0.432D-04-0.464D-04
 Coeff:     -0.374D-03-0.152D-03 0.165D-02 0.623D-02-0.318D-02-0.318D-01
 Coeff:     -0.220D-01 0.131D+00 0.560D+00 0.359D+00
 Gap=     0.314 Goal=   None    Shift=    0.000
 RMSDP=1.48D-07 MaxDP=1.09D-05 DE=-1.77D-11 OVMax= 7.45D-08

 Cycle  17  Pass 1  IDiag  1:
 RMSU=  5.69D-08    CP:  8.89D-01  2.60D+00  1.07D+00  1.12D+00  1.32D+00
                    CP:  1.20D+00  1.16D+00  1.45D+00  1.34D+00  1.75D+00
                    CP:  1.45D+00  1.91D+00  2.29D+00  2.79D+00  2.33D+00
                    CP:  1.53D+00
 E= -1166.24691175227     Delta-E=        0.000000000249 Rises=F Damp=F
 DIIS: error= 1.93D-08 at cycle  17 NSaved=  17.
 NSaved=17 IEnMin=14 EnMin= -1166.24691175266     IErMin=17 ErrMin= 1.93D-08
 ErrMax= 1.93D-08  0.00D+00 EMaxC= 1.00D-01 BMatC= 1.93D-13 BMatP= 2.41D-13
 IDIUse=1 WtCom= 1.00D+00 WtEn= 0.00D+00
 Coeff-Com:  0.143D-05-0.307D-05-0.177D-05 0.475D-05 0.487D-04-0.462D-04
 Coeff-Com: -0.408D-03-0.204D-03 0.174D-02 0.718D-02-0.216D-02-0.352D-01
 Coeff-Com: -0.325D-01 0.142D+00 0.673D+00 0.458D+00-0.212D+00
 Coeff:      0.143D-05-0.307D-05-0.177D-05 0.475D-05 0.487D-04-0.462D-04
 Coeff:     -0.408D-03-0.204D-03 0.174D-02 0.718D-02-0.216D-02-0.352D-01
 Coeff:     -0.325D-01 0.142D+00 0.673D+00 0.458D+00-0.212D+00
 Gap=     0.314 Goal=   None    Shift=    0.000
 RMSDP=9.16D-08 MaxDP=8.09D-06 DE= 2.49D-10 OVMax= 1.65D-08

 Cycle  18  Pass 1  IDiag  1:
 RMSU=  1.94D-08    CP:  8.89D-01  2.60D+00  1.07D+00  1.12D+00  1.32D+00
                    CP:  1.20D+00  1.16D+00  1.45D+00  1.34D+00  1.73D+00
                    CP:  1.45D+00  1.93D+00  2.24D+00  2.48D+00  2.00D+00
                    CP:  1.10D+00  5.16D-01
 E= -1166.24691175238     Delta-E=       -0.000000000111 Rises=F Damp=F
 DIIS: error= 3.71D-08 at cycle  18 NSaved=  18.
 NSaved=18 IEnMin=14 EnMin= -1166.24691175266     IErMin=17 ErrMin= 1.93D-08
 ErrMax= 3.71D-08  0.00D+00 EMaxC= 1.00D-01 BMatC= 2.32D-13 BMatP= 1.93D-13
 IDIUse=1 WtCom= 1.00D+00 WtEn= 0.00D+00
 Coeff-Com:  0.136D-05-0.291D-05-0.172D-05 0.453D-05 0.451D-04-0.387D-04
 Coeff-Com: -0.371D-03-0.212D-03 0.152D-02 0.678D-02-0.103D-02-0.326D-01
 Coeff-Com: -0.366D-01 0.126D+00 0.659D+00 0.514D+00-0.520D+00 0.284D+00
 Coeff:      0.136D-05-0.291D-05-0.172D-05 0.453D-05 0.451D-04-0.387D-04
 Coeff:     -0.371D-03-0.212D-03 0.152D-02 0.678D-02-0.103D-02-0.326D-01
 Coeff:     -0.366D-01 0.126D+00 0.659D+00 0.514D+00-0.520D+00 0.284D+00
 Gap=     0.314 Goal=   None    Shift=    0.000
 RMSDP=5.93D-08 MaxDP=7.21D-06 DE=-1.11D-10 OVMax= 9.99D-09

 Cycle  19  Pass 1  IDiag  1:
 RMSU=  2.87D-08    CP:  8.89D-01  2.60D+00  1.07D+00  1.12D+00  1.32D+00
                    CP:  1.20D+00  1.16D+00  1.45D+00  1.35D+00  1.73D+00
                    CP:  1.46D+00  1.97D+00  2.26D+00  2.32D+00  1.87D+00
                    CP:  9.55D-01 -7.02D-02  1.31D+00
 E= -1166.24691175244     Delta-E=       -0.000000000057 Rises=F Damp=F
 DIIS: error= 1.94D-08 at cycle  19 NSaved=  19.
 NSaved=19 IEnMin=14 EnMin= -1166.24691175266     IErMin=17 ErrMin= 1.93D-08
 ErrMax= 1.94D-08  0.00D+00 EMaxC= 1.00D-01 BMatC= 1.58D-13 BMatP= 1.93D-13
 IDIUse=1 WtCom= 1.00D+00 WtEn= 0.00D+00
 Coeff-Com:  0.127D-05-0.273D-05-0.161D-05 0.427D-05 0.424D-04-0.368D-04
 Coeff-Com: -0.351D-03-0.198D-03 0.144D-02 0.636D-02-0.108D-02-0.308D-01
 Coeff-Com: -0.342D-01 0.119D+00 0.615D+00 0.491D+00-0.535D+00 0.233D+00
 Coeff-Com:  0.136D+00
 Coeff:      0.127D-05-0.273D-05-0.161D-05 0.427D-05 0.424D-04-0.368D-04
 Coeff:     -0.351D-03-0.198D-03 0.144D-02 0.636D-02-0.108D-02-0.308D-01
 Coeff:     -0.342D-01 0.119D+00 0.615D+00 0.491D+00-0.535D+00 0.233D+00
 Coeff:      0.136D+00
 Gap=     0.314 Goal=   None    Shift=    0.000
 RMSDP=2.07D-08 MaxDP=1.99D-06 DE=-5.68D-11 OVMax= 7.91D-09

 Cycle  20  Pass 1  IDiag  1:
 RMSU=  1.29D-08    CP:  8.89D-01  2.60D+00  1.07D+00  1.12D+00  1.32D+00
                    CP:  1.20D+00  1.16D+00  1.45D+00  1.35D+00  1.73D+00
                    CP:  1.46D+00  1.96D+00  2.28D+00  2.33D+00  1.90D+00
                    CP:  1.00D+00 -1.27D-01  1.63D+00  1.40D+00
 E= -1166.24691175222     Delta-E=        0.000000000222 Rises=F Damp=F
 DIIS: error= 3.91D-08 at cycle  20 NSaved=  20.
 NSaved=20 IEnMin=14 EnMin= -1166.24691175266     IErMin=17 ErrMin= 1.93D-08
 ErrMax= 3.91D-08  0.00D+00 EMaxC= 1.00D-01 BMatC= 2.78D-13 BMatP= 1.58D-13
 IDIUse=1 WtCom= 1.00D+00 WtEn= 0.00D+00
 Coeff-Com:  0.122D-05-0.262D-05-0.156D-05 0.412D-05 0.403D-04-0.334D-04
 Coeff-Com: -0.330D-03-0.198D-03 0.133D-02 0.608D-02-0.664D-03-0.294D-01
 Coeff-Com: -0.354D-01 0.111D+00 0.595D+00 0.516D+00-0.701D+00 0.406D+00
 Coeff-Com:  0.322D+00-0.190D+00
 Coeff:      0.122D-05-0.262D-05-0.156D-05 0.412D-05 0.403D-04-0.334D-04
 Coeff:     -0.330D-03-0.198D-03 0.133D-02 0.608D-02-0.664D-03-0.294D-01
 Coeff:     -0.354D-01 0.111D+00 0.595D+00 0.516D+00-0.701D+00 0.406D+00
 Coeff:      0.322D+00-0.190D+00
 Gap=     0.314 Goal=   None    Shift=    0.000
 RMSDP=4.15D-08 MaxDP=4.65D-06 DE= 2.22D-10 OVMax= 7.28D-09

 Cycle  21  Pass 1  IDiag  1:
 Restarting incremental Fock formation.
 E= -1166.24691175223     Delta-E=       -0.000000000012 Rises=F Damp=F
 DIIS: error= 9.09D-08 at cycle  21 NSaved=  20.
 NSaved=20 IEnMin=13 EnMin= -1166.24691175266     IErMin=16 ErrMin= 1.93D-08
 ErrMax= 9.09D-08  0.00D+00 EMaxC= 1.00D-01 BMatC= 1.99D-12 BMatP= 1.58D-13
 IDIUse=1 WtCom= 1.00D+00 WtEn= 0.00D+00
 Coeff-Com: -0.756D-08 0.231D-06 0.269D-05 0.103D-04-0.252D-04-0.178D-03
 Coeff-Com: -0.461D-04 0.802D-03 0.371D-02 0.317D-03-0.195D-01-0.331D-01
 Coeff-Com:  0.765D-01 0.499D+00 0.492D+00-0.602D+00 0.358D+00 0.301D+00
 Coeff-Com: -0.155D+00 0.774D-01
 Coeff:     -0.756D-08 0.231D-06 0.269D-05 0.103D-04-0.252D-04-0.178D-03
 Coeff:     -0.461D-04 0.802D-03 0.371D-02 0.317D-03-0.195D-01-0.331D-01
 Coeff:      0.765D-01 0.499D+00 0.492D+00-0.602D+00 0.358D+00 0.301D+00
 Coeff:     -0.155D+00 0.774D-01
 Gap=     0.314 Goal=   None    Shift=    0.000
 RMSDP=1.09D-07 MaxDP=1.54D-05 DE=-1.23D-11 OVMax= 2.32D-08

 Cycle  22  Pass 1  IDiag  1:
 RMSU=  1.07D-07    CP:  1.00D+00
 E= -1166.24691175244     Delta-E=       -0.000000000210 Rises=F Damp=F
 DIIS: error= 8.54D-08 at cycle  22 NSaved=  20.
 NSaved=20 IEnMin=12 EnMin= -1166.24691175266     IErMin=15 ErrMin= 1.93D-08
 ErrMax= 8.54D-08  0.00D+00 EMaxC= 1.00D-01 BMatC= 1.76D-12 BMatP= 1.58D-13
 IDIUse=1 WtCom= 1.00D+00 WtEn= 0.00D+00
 Coeff-Com:  0.170D-06 0.210D-05 0.798D-05-0.171D-04-0.139D-03-0.484D-04
 Coeff-Com:  0.592D-03 0.309D-02 0.779D-03-0.157D-01-0.308D-01 0.614D-01
 Coeff-Com:  0.427D+00 0.463D+00-0.505D+00 0.319D+00 0.247D+00-0.955D-01
 Coeff-Com: -0.682D+00 0.806D+00
 Coeff:      0.170D-06 0.210D-05 0.798D-05-0.171D-04-0.139D-03-0.484D-04
 Coeff:      0.592D-03 0.309D-02 0.779D-03-0.157D-01-0.308D-01 0.614D-01
 Coeff:      0.427D+00 0.463D+00-0.505D+00 0.319D+00 0.247D+00-0.955D-01
 Coeff:     -0.682D+00 0.806D+00
 Gap=     0.314 Goal=   None    Shift=    0.000
 RMSDP=1.17D-07 MaxDP=1.03D-05 DE=-2.10D-10 OVMax= 2.08D-08

 Cycle  23  Pass 1  IDiag  1:
 RMSU=  9.16D-08    CP:  1.00D+00  1.67D+00
 E= -1166.24691175241     Delta-E=        0.000000000033 Rises=F Damp=F
 DIIS: error= 8.34D-08 at cycle  23 NSaved=  20.
 NSaved=20 IEnMin=11 EnMin= -1166.24691175266     IErMin=14 ErrMin= 1.93D-08
 ErrMax= 8.34D-08  0.00D+00 EMaxC= 1.00D-01 BMatC= 1.66D-12 BMatP= 1.58D-13
 IDIUse=1 WtCom= 1.00D+00 WtEn= 0.00D+00
 Large coefficients: NSaved= 20 BigCof=    0.00 CofMax=   10.00 Det=-7.11D-15
 Inversion failed.  Reducing to 19 matrices.
 Large coefficients: NSaved= 19 BigCof=    0.00 CofMax=   10.00 Det=-7.14D-15
 Inversion failed.  Reducing to 18 matrices.
 Large coefficients: NSaved= 18 BigCof=    0.00 CofMax=   10.00 Det=-7.14D-15
 Inversion failed.  Reducing to 17 matrices.
 Large coefficients: NSaved= 17 BigCof=    0.00 CofMax=   10.00 Det=-7.14D-15
 Inversion failed.  Reducing to 16 matrices.
 Large coefficients: NSaved= 16 BigCof=    0.00 CofMax=   10.00 Det=-7.15D-15
 Inversion failed.  Reducing to 15 matrices.
 Coeff-Com:  0.489D-04 0.106D-02 0.622D-03-0.894D-02-0.224D-01 0.438D-01
 Coeff-Com:  0.352D+00 0.422D+00-0.420D+00 0.282D+00 0.288D+00-0.802D-01
 Coeff-Com: -0.756D+00 0.539D+00 0.359D+00
 Coeff:      0.489D-04 0.106D-02 0.622D-03-0.894D-02-0.224D-01 0.438D-01
 Coeff:      0.352D+00 0.422D+00-0.420D+00 0.282D+00 0.288D+00-0.802D-01
 Coeff:     -0.756D+00 0.539D+00 0.359D+00
 Gap=     0.314 Goal=   None    Shift=    0.000
 RMSDP=8.09D-08 MaxDP=8.35D-06 DE= 3.27D-11 OVMax= 2.80D-08

 Cycle  24  Pass 1  IDiag  1:
 RMSU=  4.97D-08    CP:  1.00D+00  2.02D+00  1.56D+00
 E= -1166.24691175267     Delta-E=       -0.000000000261 Rises=F Damp=F
 DIIS: error= 8.32D-08 at cycle  24 NSaved=  16.
 NSaved=16 IEnMin=16 EnMin= -1166.24691175267     IErMin= 9 ErrMin= 1.93D-08
 ErrMax= 8.32D-08  0.00D+00 EMaxC= 1.00D-01 BMatC= 1.62D-12 BMatP= 1.58D-13
 IDIUse=1 WtCom= 1.00D+00 WtEn= 0.00D+00
 Large coefficients: NSaved= 16 BigCof=    0.00 CofMax=   10.00 Det=-6.79D-15
 Inversion failed.  Reducing to 15 matrices.
 Coeff-Com:  0.104D-02 0.882D-03-0.851D-02-0.228D-01 0.426D-01 0.351D+00
 Coeff-Com:  0.421D+00-0.422D+00 0.285D+00 0.289D+00-0.812D-01-0.753D+00
 Coeff-Com:  0.537D+00 0.350D+00 0.955D-02
 Coeff:      0.104D-02 0.882D-03-0.851D-02-0.228D-01 0.426D-01 0.351D+00
 Coeff:      0.421D+00-0.422D+00 0.285D+00 0.289D+00-0.812D-01-0.753D+00
 Coeff:      0.537D+00 0.350D+00 0.955D-02
 Gap=     0.314 Goal=   None    Shift=    0.000
 RMSDP=1.71D-09 MaxDP=1.67D-07 DE=-2.61D-10 OVMax= 3.44D-09

 Error on total polarization charges =  0.02470
 SCF Done:  E(RCAM-B3LYP) =  -1166.24691175     A.U. after   24 cycles
            NFock= 24  Conv=0.17D-08     -V/T= 2.0047
 KE= 1.160787497436D+03 PE=-8.315924365229D+03 EE= 3.184723051357D+03
 Leave Link  502 at Mon Feb 17 09:40:42 2020, MaxMem=  6710886400 cpu:     18941.7
 (Enter /opt/sys/apps/gaussian09/D.01/g09/l801.exe)
 DoSCS=F DFT=T ScalE2(SS,OS)=  1.000000  1.000000
 ExpMin= 3.60D-02 ExpMax= 8.59D+03 ExpMxC= 1.30D+03 IAcc=3 IRadAn=         5 AccDes= 0.00D+00
 HarFok:  IExCor=  205 AccDes= 0.00D+00 IRadAn=         5 IDoV=-2 UseB2=F ITyADJ=14
 ICtDFT= 12500011 ScaDFX=  1.000000  1.000000  1.000000  1.000000
 Largest valence mixing into a core orbital is  4.66D-05
 Largest core mixing into a valence orbital is  1.06D-05
 Range of M.O.s used for correlation:    30   923
 NBasis=   932 NAE=   109 NBE=   109 NFC=    29 NFV=     0
 NROrb=    894 NOA=    80 NOB=    80 NVA=   814 NVB=   814

 **** Warning!!: The largest alpha MO coefficient is  0.13369168D+03

 Leave Link  801 at Mon Feb 17 09:40:43 2020, MaxMem=  6710886400 cpu:         9.9
 (Enter /opt/sys/apps/gaussian09/D.01/g09/l914.exe)
 RHF ground state
 MDV=  6710886400 DFT=T DoStab=F Mixed=T DoRPA=T DoScal=F NonHer=T
 Would need an additional        564116400000 words for in-memory AO integral storage.
 NEqPCM:  Using non-equilibrium solvation (IEInf=1, Eps=  35.6880, EpsInf=   1.8069)
 Inv3:  Mode=1 IEnd=    49572675.
 Iteration    1 A*A^-1 deviation from unit magnitude is 7.55D-15 for   4054.
 Iteration    1 A*A^-1 deviation from orthogonality  is 3.51D-15 for   3729   1967.
 Iteration    1 A^-1*A deviation from unit magnitude is 7.44D-15 for   4024.
 Iteration    1 A^-1*A deviation from orthogonality  is 3.87D-15 for   2858     97.
 Making orbital integer symmetry assigments:
    40 initial guesses have been made.
 Convergence on wavefunction:    0.000001000000000
 Davidson Disk Diagonalization:  ConvIn= 1.00D-06 SkipCon=T Conv= 1.00D-06.
 Max sub-space:   200 roots to seek:    40 dimension of matrix:       130240
 Iteration     1 Dimension    40 NMult     0 NNew     40
 CISAX will form    40 AO SS matrices at one time.
 NMat=    40 NSing=    40 JSym2X= 0.
 FoFJK:  IHMeth= 1 ICntrl=       0 DoSepK=T KAlg= 0 I1Cent=   0 FoldK=F
 IRaf=         1 NMat=  80 IRICut=       1 DoRegI=T DoRafI=F ISym2E= 0.
 New state      3 was old state      5
 New state      5 was old state      6
 New state      6 was old state     11
 New state      7 was old state     10
 New state      8 was old state     12
 New state      9 was old state     13
 New state     10 was old state      9
 Excitation Energies [eV] at current iteration:
 Root      1 :     4.773065141933508
 Root      2 :     5.694193255729935
 Root      3 :     6.113674298977540
 Root      4 :     6.208895306102066
 Root      5 :     6.475043124816221
 Root      6 :     6.671704977771244
 Root      7 :     6.730177953655886
 Root      8 :     6.788202696069944
 Root      9 :     6.868001780182207
 Root     10 :     6.969131502798509
 Root     11 :     7.264244352945900
 Root     12 :     7.332254714703359
 Root     13 :     7.432798358084934
 Root     14 :     7.457122549082561
 Root     15 :     7.498343404705658
 Root     16 :     7.531084017019718
 Root     17 :     7.640821006215650
 Root     18 :     7.657923222010830
 Root     19 :     7.682688581360134
 Root     20 :     7.833082000882611
 Root     21 :     7.849843434088837
 Root     22 :     7.893090311174960
 Root     23 :     7.918139982547311
 Root     24 :     7.970543692464996
 Root     25 :     8.068731259037913
 Root     26 :     8.178989338931082
 Root     27 :     8.219289503714629
 Root     28 :     8.268678606280401
 Root     29 :     8.331250264915967
 Root     30 :     8.366393776535157
 Root     31 :     8.481305520473700
 Root     32 :     8.570209674682063
 Root     33 :     8.831642009788547
 Root     34 :     8.863345307716816
 Root     35 :     8.914329631772985
 Root     36 :     8.963612196449391
 Root     37 :     8.998447681073715
 Root     38 :     9.101644592123280
 Root     39 :     9.102617394653786
 Root     40 :     9.256957508541253
 Iteration     2 Dimension    60 NMult    40 NNew     20
 CISAX will form    20 AO SS matrices at one time.
 NMat=    20 NSing=    20 JSym2X= 0.
 Root      1 not converged, maximum delta is    0.031519092079935
 Root      2 not converged, maximum delta is    0.110587986388187
 Root      3 not converged, maximum delta is    0.088626664008922
 Root      4 not converged, maximum delta is    0.081590356578759
 Root      5 not converged, maximum delta is    0.217282337541153
 New state      6 was old state      7
 Root      6 not converged, maximum delta is    0.363802226217865
 New state      7 was old state      6
 Root      7 not converged, maximum delta is    0.232777918572751
 Root      8 not converged, maximum delta is    0.184691500846342
 Root      9 not converged, maximum delta is    0.088286946489368
 Root     10 not converged, maximum delta is    0.091649317287931
 Excitation Energies [eV] at current iteration:
 Root      1 :     4.034323048202467   Change is   -0.738742093731041
 Root      2 :     5.394837232786742   Change is   -0.299356022943194
 Root      3 :     5.825720717055265   Change is   -0.287953581922276
 Root      4 :     5.948280804135911   Change is   -0.260614501966154
 Root      5 :     6.153508469481225   Change is   -0.321534655334995
 Root      6 :     6.330524113997805   Change is   -0.399653839658082
 Root      7 :     6.425453019452362   Change is   -0.246251958318883
 Root      8 :     6.585861187002694   Change is   -0.202341509067250
 Root      9 :     6.680213627969739   Change is   -0.187788152212468
 Root     10 :     6.798989797229269   Change is   -0.170141705569240
 Iteration     3 Dimension    80 NMult    60 NNew     20
 CISAX will form    20 AO SS matrices at one time.
 NMat=    20 NSing=    20 JSym2X= 0.
 Root      1 not converged, maximum delta is    0.006148681734089
 Root      2 not converged, maximum delta is    0.014387516024349
 Root      3 not converged, maximum delta is    0.017552992813143
 Root      4 not converged, maximum delta is    0.055380075052981
 Root      5 not converged, maximum delta is    0.084393876088174
 Root      6 not converged, maximum delta is    0.080204796124616
 Root      7 not converged, maximum delta is    0.042708426415152
 Root      8 not converged, maximum delta is    0.063881606985198
 Root      9 not converged, maximum delta is    0.039756702541502
 Root     10 not converged, maximum delta is    0.052649885929744
 Excitation Energies [eV] at current iteration:
 Root      1 :     3.998940292334271   Change is   -0.035382755868196
 Root      2 :     5.376018935675086   Change is   -0.018818297111655
 Root      3 :     5.803283063177658   Change is   -0.022437653877606
 Root      4 :     5.917704204634028   Change is   -0.030576599501884
 Root      5 :     6.058675199179183   Change is   -0.094833270302043
 Root      6 :     6.295540923627688   Change is   -0.034983190370116
 Root      7 :     6.393260944566667   Change is   -0.032192074885694
 Root      8 :     6.556440815455916   Change is   -0.029420371546777
 Root      9 :     6.656865335951306   Change is   -0.023348292018434
 Root     10 :     6.765904783325559   Change is   -0.033085013903710
 Iteration     4 Dimension   100 NMult    80 NNew     20
 CISAX will form    20 AO SS matrices at one time.
 NMat=    20 NSing=    20 JSym2X= 0.
 Root      1 not converged, maximum delta is    0.003716759757806
 Root      2 not converged, maximum delta is    0.001351510934837
 Root      3 not converged, maximum delta is    0.005718774246489
 Root      4 not converged, maximum delta is    0.019243378417432
 Root      5 not converged, maximum delta is    0.044114448399658
 Root      6 not converged, maximum delta is    0.016414662076352
 Root      7 not converged, maximum delta is    0.008705858518055
 Root      8 not converged, maximum delta is    0.036690063206489
 Root      9 not converged, maximum delta is    0.066683418108258
 Root     10 not converged, maximum delta is    0.405198762428099
 Excitation Energies [eV] at current iteration:
 Root      1 :     3.995081732916931   Change is   -0.003858559417340
 Root      2 :     5.375166124132888   Change is   -0.000852811542199
 Root      3 :     5.801368380526123   Change is   -0.001914682651536
 Root      4 :     5.912317180388476   Change is   -0.005387024245553
 Root      5 :     6.037727402239953   Change is   -0.020947796939230
 Root      6 :     6.290506266964796   Change is   -0.005034656662893
 Root      7 :     6.390587407062584   Change is   -0.002673537504083
 Root      8 :     6.549010056448783   Change is   -0.007430759007133
 Root      9 :     6.651345090510417   Change is   -0.005520245440888
 Root     10 :     6.684666796776947   Change is   -0.081237986548613
 Iteration     5 Dimension   120 NMult   100 NNew     20
 CISAX will form    20 AO SS matrices at one time.
 NMat=    20 NSing=    20 JSym2X= 0.
 Root      1 not converged, maximum delta is    0.000573114402187
 Root      2 not converged, maximum delta is    0.000462419005726
 Root      3 not converged, maximum delta is    0.001607589582594
 Root      4 not converged, maximum delta is    0.004954772638606
 Root      5 not converged, maximum delta is    0.105131422921172
 New state      6 was old state     10
 Root      6 not converged, maximum delta is    0.188160861729085
 New state      7 was old state      6
 Root      7 not converged, maximum delta is    0.008927728153399
 New state      8 was old state      7
 Root      8 not converged, maximum delta is    0.025859460618173
 New state      9 was old state      8
 Root      9 not converged, maximum delta is    0.055297410314678
 New state     10 was old state      9
 Root     10 not converged, maximum delta is    0.071131166691020
 Excitation Energies [eV] at current iteration:
 Root      1 :     3.994824249466068   Change is   -0.000257483450862
 Root      2 :     5.375118767772624   Change is   -0.000047356360264
 Root      3 :     5.801147050367173   Change is   -0.000221330158949
 Root      4 :     5.911642124365434   Change is   -0.000675056023041
 Root      5 :     6.028467678510878   Change is   -0.009259723729075
 Root      6 :     6.223073931688102   Change is   -0.461592865088845
 Root      7 :     6.289898732119958   Change is   -0.000607534844837
 Root      8 :     6.390509771120762   Change is   -0.000077635941822
 Root      9 :     6.548814475522714   Change is   -0.000195580926069
 Root     10 :     6.650890297437978   Change is   -0.000454793072440
 Iteration     6 Dimension   140 NMult   120 NNew     20
 CISAX will form    20 AO SS matrices at one time.
 NMat=    20 NSing=    20 JSym2X= 0.
 Root      1 not converged, maximum delta is    0.000180097101960
 Root      2 not converged, maximum delta is    0.000303689065759
 Root      3 not converged, maximum delta is    0.001257567374214
 Root      4 not converged, maximum delta is    0.001320860269806
 Root      5 not converged, maximum delta is    0.050624147020277
 Root      6 not converged, maximum delta is    0.024732559034049
 Root      7 not converged, maximum delta is    0.002661111661589
 Root      8 not converged, maximum delta is    0.004200225675435
 Root      9 not converged, maximum delta is    0.003939524844070
 Root     10 not converged, maximum delta is    0.004762288915054
 Excitation Energies [eV] at current iteration:
 Root      1 :     3.994804232503879   Change is   -0.000020016962190
 Root      2 :     5.375114187743537   Change is   -0.000004580029086
 Root      3 :     5.801116038032255   Change is   -0.000031012334918
 Root      4 :     5.911562584819832   Change is   -0.000079539545603
 Root      5 :     6.024631934129101   Change is   -0.003835744381777
 Root      6 :     6.169557986977444   Change is   -0.053515944710658
 Root      7 :     6.289788741851742   Change is   -0.000109990268216
 Root      8 :     6.390426525515410   Change is   -0.000083245605352
 Root      9 :     6.548583725597938   Change is   -0.000230749924777
 Root     10 :     6.650586691931751   Change is   -0.000303605506226
 Iteration     7 Dimension   160 NMult   140 NNew     20
 CISAX will form    20 AO SS matrices at one time.
 NMat=    20 NSing=    20 JSym2X= 0.
 Root      1 not converged, maximum delta is    0.000089490735575
 Root      2 not converged, maximum delta is    0.000128003717785
 Root      3 not converged, maximum delta is    0.000507791312358
 Root      4 not converged, maximum delta is    0.001573856379284
 Root      5 not converged, maximum delta is    0.007731689282291
 Root      6 not converged, maximum delta is    0.019048727734226
 Root      7 not converged, maximum delta is    0.004582387776243
 Root      8 not converged, maximum delta is    0.002768996566894
 Root      9 not converged, maximum delta is    0.004300907661192
 No map to state     10
 Excitation Energies [eV] at current iteration:
 Root      1 :     3.994802524214339   Change is   -0.000001708289540
 Root      2 :     5.375113457013835   Change is   -0.000000730729702
 Root      3 :     5.801109689984447   Change is   -0.000006348047808
 Root      4 :     5.911538659344856   Change is   -0.000023925474975
 Root      5 :     6.024010587849031   Change is   -0.000621346280069
 Root      6 :     6.162943479034915   Change is   -0.006614507942529
 Root      7 :     6.289719484673538   Change is   -0.000069257178204
 Root      8 :     6.390400404763048   Change is   -0.000026120752362
 Root      9 :     6.548515054673379   Change is   -0.000068670924558
 Root     10 :     6.634722589121482
 Iteration     8 Dimension   180 NMult   160 NNew     20
 CISAX will form    20 AO SS matrices at one time.
 NMat=    20 NSing=    20 JSym2X= 0.
 Root      1 not converged, maximum delta is    0.000018231008665
 Root      2 not converged, maximum delta is    0.000031616703630
 Root      3 not converged, maximum delta is    0.000131409940908
 Root      4 not converged, maximum delta is    0.000782763726602
 Root      5 not converged, maximum delta is    0.001871268100493
 Root      6 not converged, maximum delta is    0.010318862483106
 Root      7 not converged, maximum delta is    0.005360407875107
 Root      8 not converged, maximum delta is    0.006313478770273
 New state      9 was old state     10
 Root      9 not converged, maximum delta is    0.101685678840376
 New state     10 was old state      9
 Root     10 not converged, maximum delta is    0.010424200501520
 Excitation Energies [eV] at current iteration:
 Root      1 :     3.994802397792899   Change is   -0.000000126421440
 Root      2 :     5.375113374309152   Change is   -0.000000082704683
 Root      3 :     5.801108660097248   Change is   -0.000001029887199
 Root      4 :     5.911531946271637   Change is   -0.000006713073219
 Root      5 :     6.023897721302070   Change is   -0.000112866546961
 Root      6 :     6.161437227475205   Change is   -0.001506251559710
 Root      7 :     6.289662004938778   Change is   -0.000057479734760
 Root      8 :     6.390368992877173   Change is   -0.000031411885875
 Root      9 :     6.480371737189501   Change is   -0.154350851931981
 Root     10 :     6.548491462507554   Change is   -0.000023592165825
 Iteration     9 Dimension   200 NMult   180 NNew     20
 CISAX will form    20 AO SS matrices at one time.
 NMat=    20 NSing=    20 JSym2X= 0.
 Root      1 not converged, maximum delta is    0.000002902014418
 Root      2 not converged, maximum delta is    0.000007662583353
 Root      3 not converged, maximum delta is    0.000030354280043
 Root      4 not converged, maximum delta is    0.000197788252047
 Root      5 not converged, maximum delta is    0.000429571448873
 Root      6 not converged, maximum delta is    0.002935704449739
 Root      7 not converged, maximum delta is    0.002553416012220
 Root      8 not converged, maximum delta is    0.006385750248473
 Root      9 not converged, maximum delta is    0.030013914585021
 Root     10 not converged, maximum delta is    0.001476531510400
 Excitation Energies [eV] at current iteration:
 Root      1 :     3.994802389459670   Change is   -0.000000008333229
 Root      2 :     5.375113366181639   Change is   -0.000000008127513
 Root      3 :     5.801108530091178   Change is   -0.000000130006070
 Root      4 :     5.911530718678651   Change is   -0.000001227592986
 Root      5 :     6.023882344878637   Change is   -0.000015376423433
 Root      6 :     6.161178987688510   Change is   -0.000258239786695
 Root      7 :     6.289638439665201   Change is   -0.000023565273577
 Root      8 :     6.390340702000601   Change is   -0.000028290876572
 Root      9 :     6.444830663086027   Change is   -0.035541074103474
 Root     10 :     6.548478493125733   Change is   -0.000012969381821
 Davidson failed to converge within maximum sub-space dimensions.
  Restart with updated initial guess:
 Iteration     1 Dimension    40 NMult   200 NNew     40
 CISAX will form    40 AO SS matrices at one time.
 NMat=    40 NSing=    40 JSym2X= 0.
 Excitation Energies [eV] at current iteration:
 Root      1 :     3.994802378036542
 Root      2 :     5.375113364102055
 Root      3 :     5.801108531929483
 Root      4 :     5.911530574643040
 Root      5 :     6.023880823569006
 Root      6 :     6.161146305192642
 Root      7 :     6.289633835824238
 Root      8 :     6.390331815888620
 Root      9 :     6.438359955485573
 Root     10 :     6.548476880999309
 Iteration     2 Dimension    60 NMult   240 NNew     20
 CISAX will form    20 AO SS matrices at one time.
 NMat=    20 NSing=    20 JSym2X= 0.
 Root      1 has converged.
 Root      2 has converged.
 Root      3 not converged, maximum delta is    0.000003658976272
 Root      4 not converged, maximum delta is    0.000012652803315
 Root      5 not converged, maximum delta is    0.000049979852295
 Root      6 not converged, maximum delta is    0.000224091907155
 Root      7 not converged, maximum delta is    0.000165764532000
 Root      8 not converged, maximum delta is    0.000665622281435
 Root      9 not converged, maximum delta is    0.004531035899283
 Root     10 not converged, maximum delta is    0.000053608638043
 Excitation Energies [eV] at current iteration:
 Root      1 :     3.994802377870698   Change is   -0.000000000165843
 Root      2 :     5.375113363978143   Change is   -0.000000000123913
 Root      3 :     5.801108529692505   Change is   -0.000000002236977
 Root      4 :     5.911530542984670   Change is   -0.000000031658370
 Root      5 :     6.023880481209368   Change is   -0.000000342359639
 Root      6 :     6.161137664551481   Change is   -0.000008640641162
 Root      7 :     6.289632420517651   Change is   -0.000001415306586
 Root      8 :     6.390328510766427   Change is   -0.000003305122193
 Root      9 :     6.436245198691991   Change is   -0.002114756793581
 Root     10 :     6.548476448675327   Change is   -0.000000432323981
 Iteration     3 Dimension    76 NMult   260 NNew     16
 CISAX will form    16 AO SS matrices at one time.
 NMat=    16 NSing=    16 JSym2X= 0.
 Root      1 has converged.
 Root      2 has converged.
 Root      3 not converged, maximum delta is    0.000001807123077
 Root      4 not converged, maximum delta is    0.000009566831085
 Root      5 not converged, maximum delta is    0.000027821989278
 Root      6 not converged, maximum delta is    0.000144602861528
 Root      7 not converged, maximum delta is    0.000097231273394
 Root      8 not converged, maximum delta is    0.000360570503213
 Root      9 not converged, maximum delta is    0.004519943462845
 Root     10 not converged, maximum delta is    0.000034014769742
 Excitation Energies [eV] at current iteration:
 Root      1 :     3.994802377950050   Change is    0.000000000079351
 Root      2 :     5.375113363960645   Change is   -0.000000000017497
 Root      3 :     5.801108529338457   Change is   -0.000000000354048
 Root      4 :     5.911530535443646   Change is   -0.000000007541024
 Root      5 :     6.023880422959414   Change is   -0.000000058249953
 Root      6 :     6.161135404239882   Change is   -0.000002260311598
 Root      7 :     6.289631898909636   Change is   -0.000000521608015
 Root      8 :     6.390327077043066   Change is   -0.000001433723360
 Root      9 :     6.435335901525033   Change is   -0.000909297166959
 Root     10 :     6.548476346729138   Change is   -0.000000101946190
 Iteration     4 Dimension    92 NMult   276 NNew     16
 CISAX will form    16 AO SS matrices at one time.
 NMat=    16 NSing=    16 JSym2X= 0.
 Root      1 has converged.
 Root      2 has converged.
 Root      3 has converged.
 Root      4 not converged, maximum delta is    0.000003550610028
 Root      5 not converged, maximum delta is    0.000010409809182
 Root      6 not converged, maximum delta is    0.000077737113298
 Root      7 not converged, maximum delta is    0.000055102311784
 Root      8 not converged, maximum delta is    0.000161303270048
 Root      9 not converged, maximum delta is    0.002704043224338
 Root     10 not converged, maximum delta is    0.000026957096795
 Excitation Energies [eV] at current iteration:
 Root      1 :     3.994802377822236   Change is   -0.000000000127814
 Root      2 :     5.375113363958122   Change is   -0.000000000002523
 Root      3 :     5.801108529284693   Change is   -0.000000000053764
 Root      4 :     5.911530533894373   Change is   -0.000000001549273
 Root      5 :     6.023880413804395   Change is   -0.000000009155020
 Root      6 :     6.161134962508027   Change is   -0.000000441731855
 Root      7 :     6.289631747447603   Change is   -0.000000151462033
 Root      8 :     6.390326594894946   Change is   -0.000000482148121
 Root      9 :     6.435024303026202   Change is   -0.000311598498830
 Root     10 :     6.548476316536886   Change is   -0.000000030192252
 Iteration     5 Dimension   106 NMult   292 NNew     14
 CISAX will form    14 AO SS matrices at one time.
 NMat=    14 NSing=    14 JSym2X= 0.
 Root      1 has converged.
 Root      2 has converged.
 Root      3 has converged.
 Root      4 not converged, maximum delta is    0.000002180754505
 Root      5 not converged, maximum delta is    0.000003451246848
 Root      6 not converged, maximum delta is    0.000025042377024
 Root      7 not converged, maximum delta is    0.000021823508056
 Root      8 not converged, maximum delta is    0.000059496773972
 Root      9 not converged, maximum delta is    0.001208135834784
 Root     10 not converged, maximum delta is    0.000020510947248
 Excitation Energies [eV] at current iteration:
 Root      1 :     3.994802377747845   Change is   -0.000000000074392
 Root      2 :     5.375113363973080   Change is    0.000000000014957
 Root      3 :     5.801108529280625   Change is   -0.000000000004067
 Root      4 :     5.911530533588684   Change is   -0.000000000305689
 Root      5 :     6.023880412269647   Change is   -0.000000001534748
 Root      6 :     6.161134879824429   Change is   -0.000000082683598
 Root      7 :     6.289631708123358   Change is   -0.000000039324245
 Root      8 :     6.390326456508584   Change is   -0.000000138386362
 Root      9 :     6.434932478378850   Change is   -0.000091824647352
 Root     10 :     6.548476304010442   Change is   -0.000000012526444
 Iteration     6 Dimension   120 NMult   306 NNew     14
 CISAX will form    14 AO SS matrices at one time.
 NMat=    14 NSing=    14 JSym2X= 0.
 Root      1 has converged.
 Root      2 has converged.
 Root      3 has converged.
 Root      4 not converged, maximum delta is    0.000001642473492
 Root      5 not converged, maximum delta is    0.000001998057119
 Root      6 not converged, maximum delta is    0.000015209617230
 Root      7 not converged, maximum delta is    0.000021199408218
 Root      8 not converged, maximum delta is    0.000045966179462
 Root      9 not converged, maximum delta is    0.001217220308644
 Root     10 not converged, maximum delta is    0.000027507023976
 Excitation Energies [eV] at current iteration:
 Root      1 :     3.994802377811823   Change is    0.000000000063979
 Root      2 :     5.375113363976491   Change is    0.000000000003411
 Root      3 :     5.801108529278117   Change is   -0.000000000002508
 Root      4 :     5.911530533520668   Change is   -0.000000000068016
 Root      5 :     6.023880412011938   Change is   -0.000000000257709
 Root      6 :     6.161134862067995   Change is   -0.000000017756433
 Root      7 :     6.289631696385909   Change is   -0.000000011737449
 Root      8 :     6.390326411822183   Change is   -0.000000044686401
 Root      9 :     6.434902487609544   Change is   -0.000029990769306
 Root     10 :     6.548476296294256   Change is   -0.000000007716186
 Iteration     7 Dimension   134 NMult   320 NNew     14
 CISAX will form    14 AO SS matrices at one time.
 NMat=    14 NSing=    14 JSym2X= 0.
 Root      1 has converged.
 Root      2 has converged.
 Root      3 has converged.
 Root      4 has converged.
 Root      5 not converged, maximum delta is    0.000001182766107
 Root      6 not converged, maximum delta is    0.000014616440707
 Root      7 not converged, maximum delta is    0.000023543474724
 Root      8 not converged, maximum delta is    0.000054524694413
 Root      9 not converged, maximum delta is    0.001693472798023
 Root     10 not converged, maximum delta is    0.000045753460178
 Excitation Energies [eV] at current iteration:
 Root      1 :     3.994802377816988   Change is    0.000000000005165
 Root      2 :     5.375113363971932   Change is   -0.000000000004558
 Root      3 :     5.801108529286959   Change is    0.000000000008843
 Root      4 :     5.911530533470022   Change is   -0.000000000050647
 Root      5 :     6.023880411923193   Change is   -0.000000000088745
 Root      6 :     6.161134856264921   Change is   -0.000000005803075
 Root      7 :     6.289631690099005   Change is   -0.000000006286903
 Root      8 :     6.390326383629432   Change is   -0.000000028192751
 Root      9 :     6.434882283357613   Change is   -0.000020204251931
 Root     10 :     6.548476288569660   Change is   -0.000000007724596
 Iteration     8 Dimension   146 NMult   334 NNew     12
 CISAX will form    12 AO SS matrices at one time.
 NMat=    12 NSing=    12 JSym2X= 0.
 Root      1 has converged.
 Root      2 has converged.
 Root      3 has converged.
 Root      4 has converged.
 Root      5 has converged.
 Root      6 not converged, maximum delta is    0.000007745019013
 Root      7 not converged, maximum delta is    0.000013509066788
 Root      8 not converged, maximum delta is    0.000037051469272
 Root      9 not converged, maximum delta is    0.001243233617380
 Root     10 not converged, maximum delta is    0.000046315897880
 Excitation Energies [eV] at current iteration:
 Root      1 :     3.994802377758977   Change is   -0.000000000058011
 Root      2 :     5.375113363975603   Change is    0.000000000003671
 Root      3 :     5.801108529274674   Change is   -0.000000000012286
 Root      4 :     5.911530533501993   Change is    0.000000000031970
 Root      5 :     6.023880411945000   Change is    0.000000000021808
 Root      6 :     6.161134854662663   Change is   -0.000000001602258
 Root      7 :     6.289631687675114   Change is   -0.000000002423892
 Root      8 :     6.390326370398958   Change is   -0.000000013230475
 Root      9 :     6.434871600891201   Change is   -0.000010682466412
 Root     10 :     6.548476282261396   Change is   -0.000000006308264
 Iteration     9 Dimension   156 NMult   346 NNew     10
 CISAX will form    10 AO SS matrices at one time.
 NMat=    10 NSing=    10 JSym2X= 0.
 Root      1 has converged.
 Root      2 has converged.
 Root      3 has converged.
 Root      4 has converged.
 Root      5 has converged.
 Root      6 not converged, maximum delta is    0.000002452884061
 Root      7 not converged, maximum delta is    0.000004589529316
 Root      8 not converged, maximum delta is    0.000013169416181
 Root      9 not converged, maximum delta is    0.000454149503676
 Root     10 not converged, maximum delta is    0.000020658504738
 Excitation Energies [eV] at current iteration:
 Root      1 :     3.994802377746979   Change is   -0.000000000011997
 Root      2 :     5.375113363970189   Change is   -0.000000000005414
 Root      3 :     5.801108529276176   Change is    0.000000000001502
 Root      4 :     5.911530533436785   Change is   -0.000000000065207
 Root      5 :     6.023880411948425   Change is    0.000000000003425
 Root      6 :     6.161134854360113   Change is   -0.000000000302550
 Root      7 :     6.289631687177867   Change is   -0.000000000497247
 Root      8 :     6.390326367368383   Change is   -0.000000003030575
 Root      9 :     6.434868928213337   Change is   -0.000002672677864
 Root     10 :     6.548476280005323   Change is   -0.000000002256073
 Iteration    10 Dimension   166 NMult   356 NNew     10
 CISAX will form    10 AO SS matrices at one time.
 NMat=    10 NSing=    10 JSym2X= 0.
 Root      1 has converged.
 Root      2 has converged.
 Root      3 has converged.
 Root      4 has converged.
 Root      5 has converged.
 Root      6 has converged.
 Root      7 not converged, maximum delta is    0.000001636478073
 Root      8 not converged, maximum delta is    0.000004464539457
 Root      9 not converged, maximum delta is    0.000154362373937
 Root     10 not converged, maximum delta is    0.000007218530668
 Excitation Energies [eV] at current iteration:
 Root      1 :     3.994802377751425   Change is    0.000000000004446
[...]
 Alpha virt. eigenvalues --    0.19980   0.19989   0.20197   0.20213   0.20458
 Alpha virt. eigenvalues --    0.20579   0.20805   0.20932   0.21234   0.21432
 Alpha virt. eigenvalues --    0.21587   0.21724   0.21874   0.21991   0.22155
 Alpha virt. eigenvalues --    0.22392   0.22528   0.22695   0.22730   0.23088
 Alpha virt. eigenvalues --    0.23108   0.23190   0.23502   0.23663   0.23925
 Alpha virt. eigenvalues --    0.24045   0.24349   0.24436   0.24566   0.24744
 Alpha virt. eigenvalues --    0.24818   0.25237   0.25305   0.25530   0.25775
 Alpha virt. eigenvalues --    0.25865   0.26264   0.26376   0.26435   0.26650
 Alpha virt. eigenvalues --    0.27042   0.27314   0.27431   0.27711   0.27872
 Alpha virt. eigenvalues --    0.28040   0.28500   0.28620   0.28735   0.29079
 Alpha virt. eigenvalues --    0.29192   0.29492   0.29755   0.29872   0.30042
 Alpha virt. eigenvalues --    0.30131   0.30634   0.30928   0.31139   0.31364
 Alpha virt. eigenvalues --    0.31602   0.31931   0.32154   0.32274   0.32359
 Alpha virt. eigenvalues --    0.32613   0.32821   0.32982   0.33031   0.33483
 Alpha virt. eigenvalues --    0.33615   0.33898   0.34012   0.34304   0.34453
 Alpha virt. eigenvalues --    0.34795   0.35043   0.35381   0.35606   0.35675
 Alpha virt. eigenvalues --    0.36021   0.36122   0.36384   0.36544   0.36772
 Alpha virt. eigenvalues --    0.36853   0.36866   0.37537   0.37646   0.37860
 Alpha virt. eigenvalues --    0.37998   0.38190   0.38594   0.38619   0.38844
 Alpha virt. eigenvalues --    0.39203   0.39537   0.39749   0.39937   0.40056
 Alpha virt. eigenvalues --    0.40368   0.40541   0.40668   0.40899   0.41157
 Alpha virt. eigenvalues --    0.41331   0.41409   0.41570   0.41811   0.42081
 Alpha virt. eigenvalues --    0.42447   0.42852   0.42943   0.43171   0.43297
 Alpha virt. eigenvalues --    0.43510   0.43774   0.43863   0.44099   0.44453
 Alpha virt. eigenvalues --    0.44768   0.45237   0.45475   0.45672   0.45992
 Alpha virt. eigenvalues --    0.46150   0.46590   0.46951   0.47519   0.47634
 Alpha virt. eigenvalues --    0.47927   0.48268   0.48479   0.48778   0.49066
 Alpha virt. eigenvalues --    0.49481   0.49878   0.50296   0.50710   0.51195
 Alpha virt. eigenvalues --    0.51910   0.52087   0.52771   0.53538   0.53897
 Alpha virt. eigenvalues --    0.54666   0.54859   0.55740   0.56747   0.57377
 Alpha virt. eigenvalues --    0.57454   0.58250   0.58588   0.58898   0.59344
 Alpha virt. eigenvalues --    0.60130   0.60208   0.60940   0.61051   0.61374
 Alpha virt. eigenvalues --    0.61967   0.62583   0.62625   0.62973   0.63380
 Alpha virt. eigenvalues --    0.63959   0.63968   0.64842   0.65610   0.66333
 Alpha virt. eigenvalues --    0.66836   0.67135   0.67902   0.68150   0.68726
 Alpha virt. eigenvalues --    0.69056   0.69325   0.69622   0.70143   0.70609
 Alpha virt. eigenvalues --    0.70749   0.70959   0.72058   0.72336   0.72652
 Alpha virt. eigenvalues --    0.73201   0.73406   0.73494   0.73943   0.74305
 Alpha virt. eigenvalues --    0.74720   0.75078   0.75823   0.76047   0.76519
 Alpha virt. eigenvalues --    0.76903   0.77023   0.77348   0.77936   0.78021
 Alpha virt. eigenvalues --    0.78283   0.78635   0.78739   0.79485   0.79744
 Alpha virt. eigenvalues --    0.80113   0.80367   0.80556   0.80740   0.80894
 Alpha virt. eigenvalues --    0.81322   0.81620   0.82058   0.82391   0.82808
 Alpha virt. eigenvalues --    0.82894   0.83727   0.83859   0.84179   0.84353
 Alpha virt. eigenvalues --    0.84732   0.84962   0.85054   0.85317   0.85708
 Alpha virt. eigenvalues --    0.86157   0.86423   0.86785   0.86979   0.87173
 Alpha virt. eigenvalues --    0.87567   0.87581   0.87860   0.88172   0.88420
 Alpha virt. eigenvalues --    0.88591   0.88872   0.89196   0.89420   0.89467
 Alpha virt. eigenvalues --    0.89707   0.90126   0.90185   0.90373   0.90516
 Alpha virt. eigenvalues --    0.90886   0.91167   0.91292   0.91486   0.91931
 Alpha virt. eigenvalues --    0.92053   0.92121   0.92476   0.93212   0.93554
 Alpha virt. eigenvalues --    0.93809   0.94604   0.95038   0.95120   0.95379
 Alpha virt. eigenvalues --    0.95887   0.97193   0.98099   0.98838   0.99541
 Alpha virt. eigenvalues --    1.00116   1.00917   1.01312   1.02391   1.03101
 Alpha virt. eigenvalues --    1.04663   1.04853   1.05758   1.06154   1.06787
 Alpha virt. eigenvalues --    1.07081   1.07478   1.08284   1.08947   1.09679
 Alpha virt. eigenvalues --    1.10467   1.10822   1.11945   1.12415   1.13220
 Alpha virt. eigenvalues --    1.13541   1.14831   1.15986   1.16648   1.17179
 Alpha virt. eigenvalues --    1.17713   1.19211   1.19571   1.20816   1.21136
 Alpha virt. eigenvalues --    1.21746   1.22654   1.23516   1.23728   1.24133
 Alpha virt. eigenvalues --    1.25289   1.26218   1.27009   1.27375   1.28599
 Alpha virt. eigenvalues --    1.28910   1.29655   1.29781   1.30941   1.31663
 Alpha virt. eigenvalues --    1.32428   1.32929   1.33377   1.34469   1.35159
 Alpha virt. eigenvalues --    1.35905   1.36990   1.37395   1.39013   1.39200
 Alpha virt. eigenvalues --    1.40121   1.40808   1.42496   1.43100   1.43427
 Alpha virt. eigenvalues --    1.44698   1.45844   1.46488   1.46815   1.48833
 Alpha virt. eigenvalues --    1.50412   1.51094   1.52042   1.53080   1.53793
 Alpha virt. eigenvalues --    1.53867   1.54155   1.55498   1.56666   1.57032
 Alpha virt. eigenvalues --    1.57730   1.58006   1.59616   1.60277   1.61175
 Alpha virt. eigenvalues --    1.61442   1.62132   1.62489   1.62950   1.63457
 Alpha virt. eigenvalues --    1.64556   1.64680   1.65291   1.65400   1.65694
 Alpha virt. eigenvalues --    1.65909   1.66195   1.66730   1.67341   1.68441
 Alpha virt. eigenvalues --    1.68468   1.69270   1.69695   1.70362   1.70644
 Alpha virt. eigenvalues --    1.70887   1.71124   1.71799   1.72600   1.73196
 Alpha virt. eigenvalues --    1.73269   1.73409   1.73550   1.73722   1.73807
 Alpha virt. eigenvalues --    1.74578   1.74966   1.75044   1.75722   1.76113
 Alpha virt. eigenvalues --    1.76291   1.76603   1.76851   1.77246   1.77791
 Alpha virt. eigenvalues --    1.78273   1.78383   1.78778   1.78897   1.79291
 Alpha virt. eigenvalues --    1.79796   1.80300   1.80821   1.81269   1.81814
 Alpha virt. eigenvalues --    1.82162   1.82524   1.82747   1.83437   1.83528
 Alpha virt. eigenvalues --    1.84344   1.84612   1.85146   1.85941   1.86474
 Alpha virt. eigenvalues --    1.87070   1.87473   1.87973   1.88250   1.88952
 Alpha virt. eigenvalues --    1.89154   1.89540   1.89775   1.91179   1.91577
 Alpha virt. eigenvalues --    1.91760   1.92010   1.92179   1.92633   1.93113
 Alpha virt. eigenvalues --    1.93633   1.93856   1.94362   1.95249   1.95512
 Alpha virt. eigenvalues --    1.96326   1.96538   1.96781   1.97509   1.98069
 Alpha virt. eigenvalues --    1.98289   1.99021   1.99883   2.00167   2.00914
 Alpha virt. eigenvalues --    2.01534   2.02223   2.02649   2.02786   2.03890
 Alpha virt. eigenvalues --    2.04484   2.04723   2.05222   2.05757   2.06936
 Alpha virt. eigenvalues --    2.07152   2.08086   2.08532   2.09245   2.10184
 Alpha virt. eigenvalues --    2.10301   2.11102   2.11376   2.11539   2.12885
 Alpha virt. eigenvalues --    2.13665   2.14505   2.15613   2.16426   2.17239
 Alpha virt. eigenvalues --    2.17766   2.19287   2.19984   2.20135   2.20450
 Alpha virt. eigenvalues --    2.21664   2.21854   2.22005   2.23138   2.23925
 Alpha virt. eigenvalues --    2.24193   2.24375   2.25981   2.26435   2.27228
 Alpha virt. eigenvalues --    2.27456   2.27857   2.29480   2.29748   2.29996
 Alpha virt. eigenvalues --    2.31020   2.31714   2.32166   2.32867   2.33651
 Alpha virt. eigenvalues --    2.34181   2.34570   2.34997   2.35858   2.36291
 Alpha virt. eigenvalues --    2.36835   2.37257   2.38091   2.38588   2.39635
 Alpha virt. eigenvalues --    2.40133   2.41477   2.42132   2.43034   2.43426
 Alpha virt. eigenvalues --    2.44106   2.44460   2.44710   2.46395   2.46677
 Alpha virt. eigenvalues --    2.47446   2.47725   2.49295   2.49683   2.50321
 Alpha virt. eigenvalues --    2.50615   2.51579   2.53248   2.53442   2.53971
 Alpha virt. eigenvalues --    2.55007   2.55905   2.56425   2.56852   2.57785
 Alpha virt. eigenvalues --    2.58239   2.59714   2.60038   2.60820   2.61698
 Alpha virt. eigenvalues --    2.62487   2.63993   2.64234   2.64901   2.65194
 Alpha virt. eigenvalues --    2.65762   2.65810   2.66340   2.66685   2.67332
 Alpha virt. eigenvalues --    2.67884   2.68121   2.68211   2.68796   2.69421
 Alpha virt. eigenvalues --    2.70207   2.71369   2.71955   2.72255   2.72895
 Alpha virt. eigenvalues --    2.73246   2.73595   2.74107   2.74713   2.75548
 Alpha virt. eigenvalues --    2.75609   2.76187   2.76804   2.77651   2.78041
 Alpha virt. eigenvalues --    2.78459   2.78684   2.79424   2.80511   2.80987
 Alpha virt. eigenvalues --    2.81659   2.82295   2.82512   2.83172   2.83448
 Alpha virt. eigenvalues --    2.84940   2.85560   2.86100   2.86731   2.87399
 Alpha virt. eigenvalues --    2.87837   2.88006   2.88857   2.89288   2.89604
 Alpha virt. eigenvalues --    2.90145   2.90381   2.91091   2.92109   2.92408
 Alpha virt. eigenvalues --    2.93045   2.93274   2.94942   2.95198   2.95442
 Alpha virt. eigenvalues --    2.95535   2.96243   2.97534   2.98343   2.98865
 Alpha virt. eigenvalues --    3.01071   3.02280   3.02593   3.03319   3.03659
 Alpha virt. eigenvalues --    3.04117   3.04793   3.05885   3.07518   3.08185
 Alpha virt. eigenvalues --    3.08421   3.08878   3.09161   3.09484   3.10901
 Alpha virt. eigenvalues --    3.11189   3.12514   3.13393   3.13680   3.14680
 Alpha virt. eigenvalues --    3.15154   3.15850   3.16295   3.17412   3.18518
 Alpha virt. eigenvalues --    3.19930   3.20027   3.21103   3.22222   3.22548
 Alpha virt. eigenvalues --    3.23735   3.26121   3.26448   3.26810   3.27824
 Alpha virt. eigenvalues --    3.28206   3.29556   3.30321   3.31625   3.32741
 Alpha virt. eigenvalues --    3.33305   3.33483   3.34261   3.35019   3.36899
 Alpha virt. eigenvalues --    3.38403   3.38681   3.39437   3.41471   3.42458
 Alpha virt. eigenvalues --    3.43629   3.43854   3.46045   3.46822   3.48517
 Alpha virt. eigenvalues --    3.50029   3.52503   3.52930   3.53829   3.56297
 Alpha virt. eigenvalues --    3.59456   3.63697   3.66952   3.68954   3.70532
 Alpha virt. eigenvalues --    3.75537   3.76297   3.79070   3.82174   3.85318
 Alpha virt. eigenvalues --    3.89989   3.92692   3.93865   3.93946   3.94050
 Alpha virt. eigenvalues --    3.94812   3.95338   3.95638   3.96648   3.97011
 Alpha virt. eigenvalues --    3.97503   3.98193   3.98773   4.00199   4.00916
 Alpha virt. eigenvalues --    4.01204   4.02018   4.02744   4.03516   4.03899
 Alpha virt. eigenvalues --    4.09853   4.10375   4.14140   4.16344   4.17991
 Alpha virt. eigenvalues --    4.24468   4.25602   4.26713   4.29771   4.30365
 Alpha virt. eigenvalues --    4.31811   4.35387   4.36651   4.39233   4.40475
 Alpha virt. eigenvalues --    4.41586   4.43359   4.43596   4.47795   4.48297
 Alpha virt. eigenvalues --    4.49633   4.52921   4.55883   4.59796   4.62393
 Alpha virt. eigenvalues --    4.71051   4.88394   5.23732   5.55357   5.80262
 Alpha virt. eigenvalues --   23.79765  23.90786  23.92433  23.95495  23.96765
 Alpha virt. eigenvalues --   23.97606  23.98928  24.01421  24.02329  24.03231
 Alpha virt. eigenvalues --   24.05107  24.05850  24.06825  24.08981  24.10437
 Alpha virt. eigenvalues --   24.11023  24.12161  24.12395  24.13424  24.13525
 Alpha virt. eigenvalues --   24.15327  24.15948  24.16706  24.17968  24.34414
 Alpha virt. eigenvalues --   24.35823  24.39435  24.43435  50.07327
          Condensed to atoms (all electrons):
 Mulliken charges:
               1
     1  O   -0.290396
     2  C    0.447713
     3  C   -0.358891
     4  C    0.019175
     5  C   -0.551982
     6  C   -0.696632
     7  C   -0.533499
     8  C    0.430912
     9  C   -0.096002
    10  C    0.611567
    11  C    0.241474
    12  C   -0.768905
    13  C   -0.421929
    14  C   -0.048071
    15  C   -0.379148
    16  C   -0.232855
    17  C   -0.574079
    18  C   -0.718150
    19  C   -0.193961
    20  C   -0.587919
    21  C   -0.394469
    22  C   -0.173159
    23  C   -0.659669
    24  C   -0.136335
    25  C    0.116345
    26  C    0.058769
    27  C   -0.599820
    28  C   -0.630126
    29  C   -0.664577
    30  H    0.287517
    31  H    0.265458
    32  H    0.226156
    33  H    0.185126
    34  H    0.188499
    35  H    0.174249
    36  H    0.176183
    37  H    0.208143
    38  H    0.146197
    39  H    0.185543
    40  H    0.179294
    41  H    0.140334
    42  H    0.205587
    43  H    0.238563
    44  H    0.227292
    45  H    0.143814
    46  H    0.185428
    47  H    0.183291
    48  H    0.185402
    49  H    0.137952
    50  H    0.187467
    51  H    0.177807
    52  H    0.145036
    53  H    0.222281
    54  H    0.206540
    55  H    0.218355
    56  H    0.210233
    57  H    0.202865
    58  H    0.203942
    59  H    0.207184
    60  H    0.202641
    61  H    0.187777
    62  H    0.165318
    63  H    0.156556
    64  H    0.140068
    65  H    0.152584
    66  H    0.160738
    67  H    0.152801
    68  H    0.148299
    69  H    0.147466
    70  H    0.140951
    71  H    0.177683
 Sum of Mulliken charges =   0.00000
 Mulliken charges with hydrogens summed into heavy atoms:
               1
     1  O   -0.002879
     2  C    0.447713
     3  C   -0.093433
     4  C    0.245331
     5  C   -0.178357
     6  C   -0.346199
     7  C   -0.179159
     8  C    0.430912
     9  C    0.089541
    10  C    0.611567
    11  C    0.241474
    12  C   -0.243690
    13  C   -0.183366
    14  C   -0.048071
    15  C   -0.008043
    16  C   -0.047428
    17  C   -0.067434
    18  C   -0.207839
    19  C    0.234861
    20  C   -0.369563
    21  C    0.018629
    22  C    0.030783
    23  C   -0.452486
    24  C    0.066306
    25  C    0.304122
    26  C    0.224087
    27  C   -0.150612
    28  C   -0.168288
    29  C   -0.198477
 Electronic spatial extent (au):  <R**2>=          21507.1944
 Charge=              0.0000 electrons
 Dipole moment (field-independent basis, Debye):
    X=              1.5923    Y=             -2.5292    Z=             -1.5077  Tot=              3.3474
 Quadrupole moment (field-independent basis, Debye-Ang):
   XX=           -194.2051   YY=           -173.4594   ZZ=           -189.3871
   XY=             14.8221   XZ=              8.6770   YZ=             -6.1952
 Traceless Quadrupole moment (field-independent basis, Debye-Ang):
   XX=             -8.5212   YY=             12.2245   ZZ=             -3.7032
   XY=             14.8221   XZ=              8.6770   YZ=             -6.1952
 Octapole moment (field-independent basis, Debye-Ang**2):
  XXX=              8.2527  YYY=             47.0008  ZZZ=           -109.1267  XYY=            -98.7318
  XXY=            -49.5633  XXZ=            -98.3520  XZZ=            -21.8678  YZZ=             15.3796
  YYZ=             -6.8750  XYZ=             29.8521
 Hexadecapole moment (field-independent basis, Debye-Ang**3):
 XXXX=         -23827.8226 YYYY=          -1875.8152 ZZZZ=          -5610.6837 XXXY=          -1614.8028
 XXXZ=           4926.5505 YYYX=          -1875.0068 YYYZ=            439.7862 ZZZX=           4462.4127
 ZZZY=            515.9723 XXYY=          -3608.9807 XXZZ=          -4991.4312 YYZZ=          -1117.5715
 XXYZ=           -124.9786 YYXZ=           1181.6547 ZZXY=           -541.8920
 N-N= 2.804166904684D+03 E-N=-8.315443184776D+03  KE= 1.160835772750D+03
 No NMR shielding tensors so no spin-rotation constants.
 Leave Link  601 at Mon Feb 17 12:12:35 2020, MaxMem=  6710886400 cpu:        17.7
 (Enter /opt/sys/apps/gaussian09/D.01/g09/l9999.exe)

 Test job not archived.
 1\1\GINC-S84P30\SP\RCAM-B3LYP TD-FC\6-311++G(d,p)\C28H42O1\SALVATORE\1
 7-Feb-2020\0\\#p CAM-B3LYP/6-311++G** nosym density=current geom=allch
 eck EmpiricalDispersion=GD3 SCRF=(CPCM, solvent=acetonitrile) IOP(10/7
 4=10) TD=(NSTATES=10,ROOT=1,NONEQ) iop(3/119=0810000000) iop(3/120=081
 0000000)\\DHE\\0,1\O,0,-7.1904384437,-1.8695594365,3.8146988509\C,0,0.
 2791924543,-0.216438104,-0.2938369424\C,0,0.096720103,-0.2097458461,1.
 2475226581\C,0,1.832988958,-0.2576732461,-0.3870953408\C,0,1.121348213
 8,0.8070742982,1.7623858554\C,0,2.2990280836,0.6931450696,0.7578937932
 \C,0,-0.477053289,-1.4511534487,-0.8143144319\C,0,-1.3415009582,-0.109
 4840999,1.6700141105\C,0,2.5103203614,0.0778829417,-1.7354992155\C,0,-
 2.289004897,-0.9131939747,0.8892869245\C,0,-3.7796177607,-0.9565355577
 ,1.2980713\C,0,-0.2878083969,1.0635446497,-0.9373358055\C,0,-1.8626680
 508,-1.5565724314,-0.2195843246\C,0,-4.0732641737,-0.2073847334,2.5964
 994229\C,0,-4.2272150197,-2.43747377,1.4929904285\C,0,-1.7590275171,0.
 5897165717,2.7485996246\C,0,2.0773970288,-0.8568464238,-2.8800427674\C
 ,0,-4.596576989,-0.282622608,0.1601473202\C,0,-5.4651991354,-0.3523459
 881,3.1620464016\C,0,-3.130431194,0.5183308432,3.2207542674\C,0,-5.654
 6512928,-2.5895202459,2.0336262689\C,0,4.0098695606,0.0166149166,-1.57
 75132708\C,0,-5.8326218581,-1.8259123247,3.3446214534\C,0,4.8522794187
 ,1.0335033088,-1.7489068731\C,0,6.3478877854,0.9822656021,-1.563126279
 \C,0,7.0931901018,1.3771396301,-2.8680734508\C,0,6.708463,0.4498875806
 ,-4.0301583894\C,0,8.6191110978,1.3832743338,-2.691820875\C,0,6.735260
 02,1.8773492281,-0.3689727846\H,0,-7.4293705768,-2.7910100811,3.967476
 5961\H,0,0.4349199276,-1.2052660085,1.5774618349\H,0,2.1322076174,-1.2
 820899863,-0.1252034401\H,0,1.4246944264,0.5997156635,2.7909466227\H,0
 ,0.6972681136,1.8149299936,1.7518570943\H,0,2.5546432665,1.6735893083,
 0.3470701775\H,0,3.2073781898,0.313501948,1.2292056154\H,0,0.098453916
 5,-2.359009036,-0.5824588716\H,0,-0.5712544455,-1.4326735946,-1.903893
 0062\H,0,2.2432263653,1.1056362243,-2.0076487554\H,0,-0.1548539589,1.0
 396437709,-2.0215781162\H,0,-1.3562097248,1.1627184633,-0.7355266892\H
 ,0,0.2088546965,1.961607916,-0.5632490979\H,0,-2.5638097871,-2.1650909
 68,-0.7826376543\H,0,-3.5258634878,-2.9108918014,2.1885862423\H,0,-4.1
 352496469,-2.9713773898,0.5439024075\H,0,-1.0511088587,1.175798471,3.3
 242619563\H,0,2.6483944429,-0.638432724,-3.7865115264\H,0,2.2533133378
 ,-1.9045559354,-2.6147744662\H,0,1.0186957305,-0.7435987547,-3.1177609
 145\H,0,-4.2599741737,0.7474801729,0.0198075714\H,0,-4.4432809812,-0.8
 209724474,-0.7782399155\H,0,-5.6668951567,-0.2639269466,0.370096196\H,
 0,-6.2123601836,0.0922004937,2.493211447\H,0,-5.5398242116,0.167948400
 9,4.11994038\H,0,-3.3808438295,1.0450685063,4.1374586225\H,0,-5.875751
 8445,-3.6508119512,2.191352322\H,0,-6.3879044358,-2.2152045035,1.31180
 19778\H,0,4.4107543807,-0.9601576686,-1.2999210647\H,0,-5.1712282543,-
 2.2615907802,4.1071736365\H,0,4.4500106334,2.010542832,-2.0237380954\H
 ,0,6.6304492639,-0.0519989495,-1.3229434885\H,0,6.7766273848,2.3979954
 739,-3.1254376416\H,0,6.9992907828,-0.5832380607,-3.8071379032\H,0,5.6
 326054017,0.4578781143,-4.2164621554\H,0,7.2174777825,0.74932719,-4.95
 09874444\H,0,8.9712304065,0.4037138573,-2.3486430833\H,0,9.1131342353,
 1.5990389744,-3.6437513737\H,0,8.9527124159,2.132609831,-1.9713289223\
 H,0,6.1513782744,1.6069817029,0.5146386046\H,0,7.7924504438,1.78190981
 05,-0.1128907561\H,0,6.5347349093,2.9304937329,-0.5948028519\\Version=
 ES64L-G09RevD.01\HF=-1166.2469118\RMSD=1.707e-09\Dipole=0.6264762,-0.9
 950539,-0.5931642\Quadrupole=-6.3353298,9.0885957,-2.753266,11.0198748
 ,6.4511646,-4.605996\PG=C01 [X(C28H42O1)]\\@


 READER, WHETHER YOU BE DILETTANTE OR PROFESSOR ... SHOW YOURSELF TO BE
 MORE HUMAN THAN CRITICAL, AND THEN YOUR PLEASURE WILL INCREASE.
                                           -- DOMENICO SCARLATTI (1738)
 Job cpu time:       2 days 17 hours 42 minutes 55.9 seconds.
 File lengths (MBytes):  RWF=   2339 Int=      0 D2E=      0 Chk=    416 Scr=      1
 Normal termination of Gaussian 09 at Mon Feb 17 12:12:36 2020.
