 Entering Gaussian System, Link 0=g09
 Initial command:
 /opt/sys/apps/gaussian09/D.01/g09/l1.exe "/tmp/Gau-14498.inp" -scrdir="/tmp/"
 Entering Link 1 = /opt/sys/apps/gaussian09/D.01/g09/l1.exe PID=     14499.
  
 Copyright (c) 1988,1990,1992,1993,1995,1998,2003,2009,2013,
            Gaussian, Inc.  All Rights Reserved.
  
 This is part of the Gaussian(R) 09 program.  It is based on
 the Gaussian(R) 03 system (copyright 2003, Gaussian, Inc.),
 the Gaussian(R) 98 system (copyright 1998, Gaussian, Inc.),
 the Gaussian(R) 94 system (copyright 1995, Gaussian, Inc.),
 the Gaussian 92(TM) system (copyright 1992, Gaussian, Inc.),
 the Gaussian 90(TM) system (copyright 1990, Gaussian, Inc.),
 the Gaussian 88(TM) system (copyright 1988, Gaussian, Inc.),
 the Gaussian 86(TM) system (copyright 1986, Carnegie Mellon
 University), and the Gaussian 82(TM) system (copyright 1983,
 Carnegie Mellon University). Gaussian is a federally registered
 trademark of Gaussian, Inc.
  
 This software contains proprietary and confidential information,
 including trade secrets, belonging to Gaussian, Inc.
  
 This software is provided under written license and may be
 used, copied, transmitted, or stored only in accord with that
 written license.
  
 The following legend is applicable only to US Government
 contracts under FAR:
  
                    RESTRICTED RIGHTS LEGEND
  
 Use, reproduction and disclosure by the US Government is
 subject to restrictions as set forth in subparagraphs (a)
 and (c) of the Commercial Computer Software - Restricted
 Rights clause in FAR 52.227-19.
  
 Gaussian, Inc.
 340 Quinnipiac St., Bldg. 40, Wallingford CT 06492
  
  
 ---------------------------------------------------------------
 Warning -- This program may not be used in any manner that
 competes with the business of Gaussian, Inc. or will provide
 assistance to any competitor of Gaussian, Inc.  The licensee
 of this program is prohibited from giving any competitor of
 Gaussian, Inc. access to this program.  By using this program,
 the user acknowledges that Gaussian, Inc. is engaged in the
 business of creating and licensing software in the field of
 computational chemistry and represents and warrants to the
 licensee that it is not a competitor of Gaussian, Inc. and that
 it will not use this program in any manner prohibited above.
 ---------------------------------------------------------------
  

 Cite this work as:
 Gaussian 09, Revision D.01,
 M. J. Frisch, G. W. Trucks, H. B. Schlegel, G. E. Scuseria, 
 M. A. Robb, J. R. Cheeseman, G. Scalmani, V. Barone, B. Mennucci, 
 G. A. Petersson, H. Nakatsuji, M. Caricato, X. Li, H. P. Hratchian, 
 A. F. Izmaylov, J. Bloino, G. Zheng, J. L. Sonnenberg, M. Hada, 
 M. Ehara, K. Toyota, R. Fukuda, J. Hasegawa, M. Ishida, T. Nakajima, 
 Y. Honda, O. Kitao, H. Nakai, T. Vreven, J. A. Montgomery, Jr., 
 J. E. Peralta, F. Ogliaro, M. Bearpark, J. J. Heyd, E. Brothers, 
 K. N. Kudin, V. N. Staroverov, T. Keith, R. Kobayashi, J. Normand, 
 K. Raghavachari, A. Rendell, J. C. Burant, S. S. Iyengar, J. Tomasi, 
 M. Cossi, N. Rega, J. M. Millam, M. Klene, J. E. Knox, J. B. Cross, 
 V. Bakken, C. Adamo, J. Jaramillo, R. Gomperts, R. E. Stratmann, 
 O. Yazyev, A. J. Austin, R. Cammi, C. Pomelli, J. W. Ochterski, 
 R. L. Martin, K. Morokuma, V. G. Zakrzewski, G. A. Voth, 
 P. Salvador, J. J. Dannenberg, S. Dapprich, A. D. Daniels, 
 O. Farkas, J. B. Foresman, J. V. Ortiz, J. Cioslowski, 
 and D. J. Fox, Gaussian, Inc., Wallingford CT, 2013.
 
 ******************************************
 Gaussian 09:  ES64L-G09RevD.01 24-Apr-2013
                17-Feb-2020 
 ******************************************
 %NProcShared=24
 Will use up to   24 processors via shared memory.
 %oldChk=checkpointCPCM_eta.chk
 %Chk=checkpointCPCM_ethanolES.chk
 %mem=50Gb
 Copying data from "checkpointCPCM_eta.chk" to current chk file "checkpointCPCM_ethanolES.chk".
 ----------------------------------------------------------------------
 #p CAM-B3LYP/6-311++G** nosym density=current geom=allcheck EmpiricalD
 ispersion=GD3 SCRF=(CPCM, solvent=ethanol) IOP(10/74=10) TD=(NSTATES=1
 0,ROOT=1,NONEQ) iop(3/119=0810000000) iop(3/120=0810000000)
 ----------------------------------------------------------------------
 1/29=7,30=1,38=1/1;
 2/12=2,15=1,40=1/2;
 3/5=4,6=6,7=1111,11=9,14=-4,16=1,25=1,30=1,70=2101,71=1,72=4,74=-40,119=810000000,120=810000000,124=31/1,2,8,3;
 4//1;
 5/5=2,38=5,53=4/2;
 8/6=1,10=2,107=1,108=10/1;
 9/8=1,15=1,41=10,42=1,70=2,73=1/14;
 10/5=4,13=10,31=1,74=10/2;
 6/7=2,8=2,9=2,10=2,22=-1/1;
 99/5=1,9=1/99;
 Leave Link    1 at Mon Feb 17 09:29:08 2020, MaxMem=  6710886400 cpu:        23.1
 (Enter /opt/sys/apps/gaussian09/D.01/g09/l101.exe)
 Structure from the checkpoint file:  "checkpointCPCM_ethanolES.chk"
 -------
 dianion
 -------
 Charge = -2 Multiplicity = 1
 Redundant internal coordinates found in file.
 O,0,2.811879998,-0.6112145868,-4.7101483976
 O,0,2.734586409,-0.1526160479,4.6907335912
 C,0,2.7297345562,-0.4871021576,-2.3417454282
 C,0,2.690410477,-0.2548571024,2.3204393172
 C,0,0.6724486028,-0.4547179182,-3.6771071871
 C,0,0.6110547832,-0.1254484797,3.613316411
 C,0,-0.0705082963,-0.3822368889,-2.5371130894
 C,0,-0.1137346132,-0.1702625605,2.4601400792
 C,0,0.5318241048,-0.3623927496,-1.2424289882
 C,0,0.5100602205,-0.2471058559,1.1788070511
 C,0,1.9589308856,-0.4098154264,-1.2098724242
 C,0,1.9375524078,-0.2917319063,1.1743129871
 C,0,2.1303892966,-0.5207404751,-3.6512652892
 C,0,2.0699496969,-0.1663074562,3.6170698521
 O,0,2.6214601992,-0.3736029397,-0.0109653998
 C,0,-0.185198215,-0.2787770855,-0.0400210932
 C,0,-1.6759967375,-0.3370558203,-0.051898804
 C,0,-2.2409750894,-1.6002093435,-0.2814658429
 C,0,-3.6200275592,-1.7784652426,-0.2780089223
 C,0,-4.4573426089,-0.6861046,-0.0427858772
 C,0,-3.9007115282,0.5657863792,0.1912322154
 C,0,-2.5119255962,0.7642908365,0.1858111829
 H,0,3.8097194598,-0.5289664834,-2.2554495992
 H,0,3.7719476015,-0.2990415289,2.2565048008
 H,0,0.1952488643,-0.467052735,-4.651798851
 H,0,0.1170479397,-0.061987421,4.5775490565
 H,0,-1.152624773,-0.3402574223,-2.5951703072
 H,0,-1.1969794507,-0.1446911335,2.4993111852
 H,0,-1.5879213995,-2.448367792,-0.4570816069
 H,0,-4.0377268016,-2.7620543964,-0.4605541349
 H,0,-5.5342438935,-0.8158361641,-0.0441353824
 H,0,-4.5277634821,1.4282892832,0.3798451439
 C,0,-1.9494556549,2.1992316956,0.4077043316
 O,0,-2.726446167,3.0263435569,0.9434087633
 O,0,-0.7714703839,2.4095305812,0.0392034126
 Recover connectivity data from disk.
 NAtoms=     35 NQM=       35 NQMF=       0 NMMI=      0 NMMIF=      0
                NMic=       0 NMicF=      0.
                    Isotopes and Nuclear Properties:
 (Nuclear quadrupole moments (NQMom) in fm**2, nuclear magnetic moments (NMagM)
  in nuclear magnetons)

  Atom         1           2           3           4           5           6           7           8           9          10
 IAtWgt=          16          16          12          12          12          12          12          12          12          12
 AtmWgt=  15.9949146  15.9949146  12.0000000  12.0000000  12.0000000  12.0000000  12.0000000  12.0000000  12.0000000  12.0000000
 NucSpn=           0           0           0           0           0           0           0           0           0           0
 AtZEff=  -5.6000000  -5.6000000  -3.6000000  -3.6000000  -3.6000000  -3.6000000  -3.6000000  -3.6000000  -3.6000000  -3.6000000
 NQMom=    0.0000000   0.0000000   0.0000000   0.0000000   0.0000000   0.0000000   0.0000000   0.0000000   0.0000000   0.0000000
 NMagM=    0.0000000   0.0000000   0.0000000   0.0000000   0.0000000   0.0000000   0.0000000   0.0000000   0.0000000   0.0000000
 AtZNuc=   8.0000000   8.0000000   6.0000000   6.0000000   6.0000000   6.0000000   6.0000000   6.0000000   6.0000000   6.0000000

  Atom        11          12          13          14          15          16          17          18          19          20
 IAtWgt=          12          12          12          12          16          12          12          12          12          12
 AtmWgt=  12.0000000  12.0000000  12.0000000  12.0000000  15.9949146  12.0000000  12.0000000  12.0000000  12.0000000  12.0000000
 NucSpn=           0           0           0           0           0           0           0           0           0           0
 AtZEff=  -3.6000000  -3.6000000  -3.6000000  -3.6000000  -5.6000000  -3.6000000  -3.6000000  -3.6000000  -3.6000000  -3.6000000
 NQMom=    0.0000000   0.0000000   0.0000000   0.0000000   0.0000000   0.0000000   0.0000000   0.0000000   0.0000000   0.0000000
 NMagM=    0.0000000   0.0000000   0.0000000   0.0000000   0.0000000   0.0000000   0.0000000   0.0000000   0.0000000   0.0000000
 AtZNuc=   6.0000000   6.0000000   6.0000000   6.0000000   8.0000000   6.0000000   6.0000000   6.0000000   6.0000000   6.0000000

  Atom        21          22          23          24          25          26          27          28          29          30
 IAtWgt=          12          12           1           1           1           1           1           1           1           1
 AtmWgt=  12.0000000  12.0000000   1.0078250   1.0078250   1.0078250   1.0078250   1.0078250   1.0078250   1.0078250   1.0078250
 NucSpn=           0           0           1           1           1           1           1           1           1           1
 AtZEff=  -3.6000000  -3.6000000  -1.0000000  -1.0000000  -1.0000000  -1.0000000  -1.0000000  -1.0000000  -1.0000000  -1.0000000
 NQMom=    0.0000000   0.0000000   0.0000000   0.0000000   0.0000000   0.0000000   0.0000000   0.0000000   0.0000000   0.0000000
 NMagM=    0.0000000   0.0000000   2.7928460   2.7928460   2.7928460   2.7928460   2.7928460   2.7928460   2.7928460   2.7928460
 AtZNuc=   6.0000000   6.0000000   1.0000000   1.0000000   1.0000000   1.0000000   1.0000000   1.0000000   1.0000000   1.0000000

  Atom        31          32          33          34          35
 IAtWgt=           1           1          12          16          16
 AtmWgt=   1.0078250   1.0078250  12.0000000  15.9949146  15.9949146
 NucSpn=           1           1           0           0           0
 AtZEff=  -1.0000000  -1.0000000  -3.6000000  -5.6000000  -5.6000000
 NQMom=    0.0000000   0.0000000   0.0000000   0.0000000   0.0000000
 NMagM=    2.7928460   2.7928460   0.0000000   0.0000000   0.0000000
 AtZNuc=   1.0000000   1.0000000   6.0000000   8.0000000   8.0000000
 Leave Link  101 at Mon Feb 17 09:29:08 2020, MaxMem=  6710886400 cpu:         6.6
 (Enter /opt/sys/apps/gaussian09/D.01/g09/l202.exe)
                          Input orientation:                          
 ---------------------------------------------------------------------
 Center     Atomic      Atomic             Coordinates (Angstroms)
 Number     Number       Type             X           Y           Z
 ---------------------------------------------------------------------
      1          8           0        2.811880   -0.611215   -4.710148
      2          8           0        2.734586   -0.152616    4.690734
      3          6           0        2.729735   -0.487102   -2.341745
      4          6           0        2.690410   -0.254857    2.320439
      5          6           0        0.672449   -0.454718   -3.677107
      6          6           0        0.611055   -0.125448    3.613316
      7          6           0       -0.070508   -0.382237   -2.537113
      8          6           0       -0.113735   -0.170263    2.460140
      9          6           0        0.531824   -0.362393   -1.242429
     10          6           0        0.510060   -0.247106    1.178807
     11          6           0        1.958931   -0.409815   -1.209872
     12          6           0        1.937552   -0.291732    1.174313
     13          6           0        2.130389   -0.520740   -3.651265
     14          6           0        2.069950   -0.166307    3.617070
     15          8           0        2.621460   -0.373603   -0.010965
     16          6           0       -0.185198   -0.278777   -0.040021
     17          6           0       -1.675997   -0.337056   -0.051899
     18          6           0       -2.240975   -1.600209   -0.281466
     19          6           0       -3.620028   -1.778465   -0.278009
     20          6           0       -4.457343   -0.686105   -0.042786
     21          6           0       -3.900712    0.565786    0.191232
     22          6           0       -2.511926    0.764291    0.185811
     23          1           0        3.809719   -0.528966   -2.255450
     24          1           0        3.771948   -0.299042    2.256505
     25          1           0        0.195249   -0.467053   -4.651799
     26          1           0        0.117048   -0.061987    4.577549
     27          1           0       -1.152625   -0.340257   -2.595170
     28          1           0       -1.196979   -0.144691    2.499311
     29          1           0       -1.587921   -2.448368   -0.457082
     30          1           0       -4.037727   -2.762054   -0.460554
     31          1           0       -5.534244   -0.815836   -0.044135
     32          1           0       -4.527763    1.428289    0.379845
     33          6           0       -1.949456    2.199232    0.407704
     34          8           0       -2.726446    3.026344    0.943409
     35          8           0       -0.771470    2.409531    0.039203
 ---------------------------------------------------------------------
                    Distance matrix (angstroms):
                    1          2          3          4          5
     1  O    0.000000
     2  O    9.412379   0.000000
     3  C    2.373075   7.040431   0.000000
     4  C    7.040661   2.372910   4.668131   0.000000
     5  C    2.380931   8.623482   2.452889   6.331088   0.000000
     6  C    8.623205   2.381376   6.331063   2.451938   7.298114
     7  C    3.616998   7.756484   2.809008   5.588803   1.362654
     8  C    7.756719   3.617843   5.589616   2.808897   6.193933
     9  C    4.157601   6.332344   2.460662   4.167144   2.440483
    10  C    6.333304   4.158254   4.168794   2.461161   4.863062
    11  C    3.608326   5.956924   1.371586   3.608625   2.782858
    12  C    5.957634   3.608300   3.609486   1.371773   5.016306
    13  C    1.262477   8.371948   1.440551   6.003797   1.459664
    14  C    8.372035   1.262808   6.003808   1.440161   7.432443
    15  O    4.709038   4.708249   2.336052   2.335445   4.152809
    16  C    5.559054   5.560674   3.719969   3.720413   3.740977
    17  C    6.474217   6.479184   4.967533   4.969935   4.321016
    18  C    6.791368   7.181539   5.494699   5.735717   4.618503
    19  C    7.897833   8.228785   6.800449   6.992492   5.633074
    20  C    8.638951   8.626393   7.548437   7.540635   6.290993
    21  C    8.394507   8.049149   7.175470   6.974946   6.076123
    22  C    7.362428   6.975739   5.952271   5.714858   5.152510
    23  H    2.651037   7.038964   1.084236   4.718766   3.445155
    24  H    7.039420   2.650100   4.718631   1.084326   6.696184
    25  H    2.621249   9.686590   3.429339   7.408304   1.085309
    26  H    9.686335   2.621551   7.408339   3.428402   8.282636
    27  H    4.501538   8.260146   3.893392   6.240147   2.124754
    28  H    8.262258   4.501067   6.242768   3.893062   6.460574
    29  H    6.389207   7.103137   5.103006   5.552498   4.410496
    30  H    8.342798   8.899953   7.383280   7.699857   6.152704
    31  H    9.564065   9.551565   8.583730   8.576179   7.200828
    32  H    9.161767   8.592133   7.984175   7.661653   6.859066
    33  C    7.534012   6.768735   6.055632   5.586543   5.532044
    34  O    8.710201   7.346503   7.273682   6.481113   6.709653
    35  O    6.672454   6.363471   5.130091   4.928247   4.909153
                    6          7          8          9         10
     6  C    0.000000
     7  C    6.193404   0.000000
     8  C    1.362771   5.001934   0.000000
     9  C    4.862169   1.428077   3.763333   0.000000
    10  C    2.439639   3.763427   1.427179   2.424077   0.000000
    11  C    5.016053   2.425067   4.221649   1.428266   2.798480
    12  C    2.781364   4.220804   2.424022   2.796731   1.428197
    13  C    7.432280   2.470722   6.519831   2.895337   5.101955
    14  C    1.459472   6.519368   2.471230   5.100883   2.895671
    15  O    4.151955   3.691638   3.691748   2.425532   2.426844
    16  C    3.742246   2.501865   2.503535   1.402461   1.403542
    17  C    4.325412   2.959041   2.962908   2.508481   2.510293
    18  C    5.047606   3.358918   3.753172   3.184973   3.395803
    19  C    5.981382   4.433068   4.730525   4.491463   4.639504
    20  C    6.274557   5.055524   5.039609   5.141568   5.134209
    21  C    5.704779   4.797194   4.475590   4.750187   4.592494
    22  C    4.721486   3.832670   3.434717   3.545941   3.337868
    23  H    6.696021   3.893203   6.144831   3.434903   4.770882
    24  H    3.444171   6.144116   3.893145   4.769167   3.435701
    25  H    8.282615   2.133006   7.124832   3.427541   5.843240
    26  H    1.085272   7.124335   2.132699   5.842468   3.426394
    27  H    6.457710   1.084486   5.163754   2.160502   4.125058
    28  H    2.123762   5.166327   1.084254   4.127563   2.160603
    29  H    5.176832   3.301207   3.984115   3.075936   3.453001
    30  H    6.720066   5.070942   5.535843   5.220201   5.449297
    31  H    7.184587   6.021242   6.005837   6.199895   6.192952
    32  H    6.267128   5.626169   5.134846   5.606937   5.368888
    33  C    4.715538   4.343544   3.632749   3.929581   3.553644
    34  O    5.310472   5.548555   4.398298   5.184375   4.609323
    35  O    4.594756   3.862994   3.598456   3.320349   3.162078
                   11         12         13         14         15
    11  C    0.000000
    12  C    2.387204   0.000000
    13  C    2.449919   4.834856   0.000000
    14  C    4.834355   2.449555   7.277223   0.000000
    15  O    1.370268   1.370882   3.676219   3.675565   0.000000
    16  C    2.446020   2.445577   4.296694   4.297983   2.808410
    17  C    3.815612   3.816201   5.241923   5.246199   4.297807
    18  C    4.462980   4.614271   5.624022   5.986546   5.022052
    19  C    5.819480   5.933491   6.784396   7.081422   6.403212
    20  C    6.527403   6.521621   7.513101   7.501352   7.085769
    21  C    6.103303   5.982233   7.233222   6.922508   6.592576
    22  C    4.828563   4.678694   6.158372   5.799408   5.261670
    23  H    2.129048   3.914660   2.183694   6.135536   2.544368
    24  H    3.913448   2.129835   6.135602   2.183015   2.543738
    25  H    3.867907   6.083579   2.179155   8.484052   5.237611
    26  H    6.083401   3.866398   8.483949   2.178813   5.236759
    27  H    3.406709   4.874480   3.453417   7.000512   4.574161
    28  H    4.877305   3.406249   7.003027   3.452923   4.575409
    29  H    4.159634   4.443140   5.267294   5.931824   4.714081
    30  H    6.484937   6.669276   7.297245   7.789007   7.088836
    31  H    7.594173   7.588613   8.476147   8.464637   8.167752
    32  H    6.926979   6.737207   8.023688   7.520118   7.383153
    33  C    4.969826   4.679895   6.365424   5.661398   5.261942
    34  O    6.196496   5.728510   7.568467   6.351921   6.408632
    35  O    4.118737   3.990501   5.534152   5.244973   4.388659
                   16         17         18         19         20
    16  C    0.000000
    17  C    1.491984   0.000000
    18  C    2.455748   1.402661   0.000000
    19  C    3.755497   2.430647   1.390530   0.000000
    20  C    4.291520   2.803177   2.409324   1.396309   0.000000
    21  C    3.817303   2.413212   2.769423   2.407174   1.389904
    22  C    2.559815   1.402942   2.425412   2.812228   2.437325
    23  H    4.574941   5.914858   6.454075   7.789266   8.559491
    24  H    4.575308   5.916948   6.655041   7.953223   8.553232
    25  H    4.631272   4.967649   5.130209   5.950309   6.552678
    26  H    4.632527   4.972168   5.615730   6.363055   6.531620
    27  H    2.732852   2.596567   2.850476   3.677738   4.189921
    28  H    2.736766   2.602909   3.307746   4.031611   4.169575
    29  H    2.617001   2.151643   1.084755   2.147159   3.392756
    30  H    4.602770   3.409602   2.147155   1.084086   2.158744
    31  H    5.375941   3.887848   3.393698   2.155360   1.084688
    32  H    4.684894   3.381630   3.852082   3.397062   2.157368
    33  C    3.074669   2.592059   3.872427   4.368419   3.849364
    34  O    4.283561   3.661494   4.810508   5.037513   4.213176
    35  O    2.752633   2.893131   4.282556   5.074861   4.814077
                   21         22         23         24         25
    21  C    0.000000
    22  C    1.402911   0.000000
    23  H    8.163056   6.898947   0.000000
    24  H    7.992683   6.701157   4.517967   0.000000
    25  H    6.426399   5.678686   4.337133   7.781109   0.000000
    26  H    5.981326   5.184747   7.780987   4.336096   9.238564
    27  H    4.017080   3.286576   4.977538   6.913166   2.462227
    28  H    3.625214   2.812048   6.915378   4.977250   7.292502
    29  H    3.854145   3.404155   6.004395   6.380545   4.970006
    30  H    3.393836   3.896276   8.354085   8.627853   6.383702
    31  H    2.152372   3.418199   9.606345   9.600272   7.360659
    32  H    1.082904   2.131231   8.960427   8.682783   7.156578
    33  C    2.553900   1.557133   6.906776   6.511059   6.107979
    34  O    2.828252   2.395173   8.099036   7.416976   7.214324
    35  O    3.635197   2.399477   5.906564   5.735454   5.587019
                   26         27         28         29         30
    26  H    0.000000
    27  H    7.289541   0.000000
    28  H    2.460199   5.098427   0.000000
    29  H    5.826597   3.033980   3.768291   0.000000
    30  H    7.066470   4.329607   4.866337   2.469809   0.000000
    31  H    7.339302   5.092400   5.072615   4.290588   2.490127
    32  H    6.435520   4.834256   4.249768   4.936759   4.301789
    33  C    5.174085   4.012630   3.230327   4.741175   5.452441
    34  O    5.552497   5.131516   3.849099   5.764553   6.098862
    35  O    5.243515   3.827080   3.571727   4.950966   6.137058
                   31         32         33         34         35
    31  H    0.000000
    32  H    2.495769   0.000000
    33  C    4.705901   2.691245   0.000000
    34  O    4.860177   2.473080   1.254913   0.000000
    35  O    5.752734   3.897257   1.252065   2.240530   0.000000
 Symmetry turned off by external request.
 Stoichiometry    C20H10O5(2-)
 Framework group  C1[X(C20H10O5)]
 Deg. of freedom    99
 Full point group                 C1      NOp   1
 Rotational constants (GHZ):      0.2411699      0.2233959      0.1405944
 Leave Link  202 at Mon Feb 17 09:29:08 2020, MaxMem=  6710886400 cpu:         0.1
 (Enter /opt/sys/apps/gaussian09/D.01/g09/l301.exe)
 Standard basis: 6-311++G(d,p) (5D, 7F)
 Ernie: Thresh=  0.10000D-02 Tol=  0.10000D-05 Strict=F.
   620 basis functions,   990 primitive gaussians,   645 cartesian basis functions
    86 alpha electrons       86 beta electrons
       nuclear repulsion energy      2030.9355817324 Hartrees.
 IExCor=20419 DFT=T Ex+Corr=CAM-B3LYP ExCW=0 ScaHFX=  1.000000
 ScaDFX=  1.000000  1.000000  1.000000  0.810000 ScalE2=  1.000000  1.000000
 IRadAn=      0 IRanWt=     -1 IRanGd=            0 ICorTp=0 IEmpDi=131
  HFx wShort=  0.000000 wLong=  0.330000 cFull=  0.190000 cShort=  0.000000 cLong=  0.810000
  DFx wShort=  0.000000 wLong=  0.330000 cFull=  0.190000 cShort=  0.000000 cLong=  0.810000
 NAtoms=   35 NActive=   35 NUniq=   35 SFac= 1.00D+00 NAtFMM=   60 NAOKFM=F Big=F
 Integral buffers will be    131072 words long.
 Raffenetti 1 integral format.
 Two-electron integral symmetry is turned off.
 R6Disp:  Grimme-D3 Dispersion energy=       -0.0267365404 Hartrees.
 Nuclear repulsion after empirical dispersion term =     2030.9088451919 Hartrees.
 ------------------------------------------------------------------------------
 Polarizable Continuum Model (PCM)
 =================================
 Model                : C-PCM.
 Atomic radii         : UFF (Universal Force Field).
 Polarization charges : Total charges.
 Charge compensation  : None.
 Solution method      : On-the-fly selection.
 Cavity type          : Scaled VdW (van der Waals Surface) (Alpha=1.100).
 Cavity algorithm     : GePol (No added spheres)
                        Default sphere list used, NSphG=   35.
                        Lebedev-Laikov grids with approx.  5.0 points / Ang**2.
                        Smoothing algorithm: Karplus/York (Gamma=1.0000).
                        Polarization charges: spherical gaussians, with
                                              point-specific exponents (IZeta= 3).
                        Self-potential: point-specific (ISelfS= 7).
                        Self-field    : sphere-specific E.n sum rule (ISelfD= 2).
 1st derivatives      : Analytical E(r).r(x)/FMM algorithm (CHGder, D1EAlg=3).
                        Cavity 1st derivative terms included.
 Solvent              : Ethanol, Eps=  24.852000 Eps(inf)=   1.852593
 ------------------------------------------------------------------------------
 GePol: Number of generator spheres                  =      35
 GePol: Total number of spheres                      =      35
 GePol: Number of exposed spheres                    =      35 (100.00%)
 GePol: Number of points                             =    2880
 GePol: Average weight of points                     =       0.13
 GePol: Minimum weight of points                     =   0.19D-11
 GePol: Maximum weight of points                     =    0.20577
 GePol: Number of points with low weight             =     162
 GePol: Fraction of low-weight points (<1% of avg)   =       5.63%
 GePol: Cavity surface area                          =    368.274 Ang**2
 GePol: Cavity volume                                =    411.048 Ang**3
 Leave Link  301 at Mon Feb 17 09:29:08 2020, MaxMem=  6710886400 cpu:         3.3
 (Enter /opt/sys/apps/gaussian09/D.01/g09/l302.exe)
 NPDir=0 NMtPBC=     1 NCelOv=     1 NCel=       1 NClECP=     1 NCelD=      1
         NCelK=      1 NCelE2=     1 NClLst=     1 CellRange=     0.0.
 One-electron integrals computed using PRISM.
 NBasis=   620 RedAO= T EigKep=  1.57D-06  NBF=   620
 NBsUse=   611 1.00D-06 EigRej=  9.99D-07 NBFU=   611
 Precomputing XC quadrature grid using
 IXCGrd= 4 IRadAn=           0 IRanWt=          -1 IRanGd=           0 AccXCQ= 0.00D+00.
 Generated NRdTot=       0 NPtTot=           0 NUsed=           0 NTot=          32
 NSgBfM=   637   637   637   637   637 MxSgAt=    35 MxSgA2=    35.
 Leave Link  302 at Mon Feb 17 09:29:09 2020, MaxMem=  6710886400 cpu:        19.4
 (Enter /opt/sys/apps/gaussian09/D.01/g09/l308.exe)
 Leave Link  308 at Mon Feb 17 09:29:09 2020, MaxMem=  6710886400 cpu:         2.9
 (Enter /opt/sys/apps/gaussian09/D.01/g09/l303.exe)
 DipDrv:  MaxL=1.
 Leave Link  303 at Mon Feb 17 09:29:09 2020, MaxMem=  6710886400 cpu:         2.5
 (Enter /opt/sys/apps/gaussian09/D.01/g09/l401.exe)
 ExpMin= 3.60D-02 ExpMax= 8.59D+03 ExpMxC= 1.30D+03 IAcc=3 IRadAn=         5 AccDes= 0.00D+00
 Harris functional with IExCor=20419 and IRadAn=       5 diagonalized for initial guess.
 HarFok:  IExCor=20419 AccDes= 0.00D+00 IRadAn=         5 IDoV= 1 UseB2=F ITyADJ=14
 ICtDFT=  3500011 ScaDFX=  1.000000  1.000000  1.000000  1.000000
 FoFCou: FMM=F IPFlag=           0 FMFlag=      100000 FMFlg1=           0
         NFxFlg=           0 DoJE=T BraDBF=F KetDBF=T FulRan=T
         wScrn=  0.000000 ICntrl=     500 IOpCl=  0 I1Cent=   200000004 NGrid=           0
         NMat0=    1 NMatS0=      1 NMatT0=    0 NMatD0=    1 NMtDS0=    0 NMtDT0=    0
 Symmetry not used in FoFCou.
 Harris En= -1091.13863849536    
 JPrj=0 DoOrth=F DoCkMO=F.
 Leave Link  401 at Mon Feb 17 09:29:13 2020, MaxMem=  6710886400 cpu:        68.2
 (Enter /opt/sys/apps/gaussian09/D.01/g09/l502.exe)
 Closed shell SCF:
 Using DIIS extrapolation, IDIIS=  1040.
 Two-electron integral symmetry not used.
 IVT=     1286045 IEndB=     1286045 NGot=  6710886400 MDV=  6710033666
 LenX=  6710033666 LenY=  6709616996
 Requested convergence on RMS density matrix=1.00D-08 within 128 cycles.
 Requested convergence on MAX density matrix=1.00D-06.
 Requested convergence on             energy=1.00D-06.
 No special actions if energy rises.
 Fock matrices will be formed incrementally for  20 cycles.

 Cycle   1  Pass 1  IDiag  1:
 FoFJK:  IHMeth= 1 ICntrl=       0 DoSepK=T KAlg= 0 I1Cent=   0 FoldK=F
 IRaf=         1 NMat=   1 IRICut=       1 DoRegI=T DoRafI=F ISym2E= 0.
 FoFCou: FMM=F IPFlag=           0 FMFlag=      100000 FMFlg1=           0
         NFxFlg=           0 DoJE=T BraDBF=F KetDBF=F FulRan=T
         wScrn=  0.000000 ICntrl=     500 IOpCl=  0 I1Cent=           0 NGrid=           0
         NMat0=    1 NMatS0=      1 NMatT0=    0 NMatD0=    1 NMtDS0=    0 NMtDT0=    0
 Symmetry not used in FoFCou.
 Inv3:  Mode=1 IEnd=    24883200.
 Iteration    1 A*A^-1 deviation from unit magnitude is 7.99D-15 for   2857.
 Iteration    1 A*A^-1 deviation from orthogonality  is 1.67D-15 for   2870   1761.
 Iteration    1 A^-1*A deviation from unit magnitude is 7.99D-15 for   2857.
 Iteration    1 A^-1*A deviation from orthogonality  is 2.07D-15 for   2037   1919.
 E= -1143.21384308004    
 DIIS: error= 8.46D-02 at cycle   1 NSaved=   1.
 NSaved= 1 IEnMin= 1 EnMin= -1143.21384308004     IErMin= 1 ErrMin= 8.46D-02
 ErrMax= 8.46D-02  0.00D+00 EMaxC= 1.00D-01 BMatC= 1.93D+00 BMatP= 1.93D+00
 IDIUse=3 WtCom= 1.54D-01 WtEn= 8.46D-01
 Coeff-Com:  0.100D+01
 Coeff-En:   0.100D+01
 Coeff:      0.100D+01
 Gap=     0.249 Goal=   None    Shift=    0.000
 GapD=    0.249 DampG=1.000 DampE=0.500 DampFc=0.5000 IDamp=-1.
 Damping current iteration by 5.00D-01
 RMSDP=2.19D-02 MaxDP=3.21D+00              OVMax= 1.81D-01

 Cycle   2  Pass 1  IDiag  1:
 RMSU=  6.75D-03    CP:  8.53D-01
 E= -1143.37004032535     Delta-E=       -0.156197245310 Rises=F Damp=T
 DIIS: error= 3.93D-02 at cycle   2 NSaved=   2.
 NSaved= 2 IEnMin= 2 EnMin= -1143.37004032535     IErMin= 2 ErrMin= 3.93D-02
 ErrMax= 3.93D-02  0.00D+00 EMaxC= 1.00D-01 BMatC= 3.92D-01 BMatP= 1.93D+00
 IDIUse=3 WtCom= 6.07D-01 WtEn= 3.93D-01
 Coeff-Com: -0.561D+00 0.156D+01
 Coeff-En:   0.000D+00 0.100D+01
 Coeff:     -0.340D+00 0.134D+01
 Gap=     0.266 Goal=   None    Shift=    0.000
 RMSDP=1.08D-02 MaxDP=1.44D+00 DE=-1.56D-01 OVMax= 1.51D-01

 Cycle   3  Pass 1  IDiag  1:
 RMSU=  4.79D-03    CP:  7.19D-01  1.83D+00
 E= -1143.49646625033     Delta-E=       -0.126425924980 Rises=F Damp=F
 DIIS: error= 1.17D-02 at cycle   3 NSaved=   3.
 NSaved= 3 IEnMin= 3 EnMin= -1143.49646625033     IErMin= 3 ErrMin= 1.17D-02
 ErrMax= 1.17D-02  0.00D+00 EMaxC= 1.00D-01 BMatC= 6.52D-02 BMatP= 3.92D-01
 IDIUse=3 WtCom= 8.83D-01 WtEn= 1.17D-01
 Coeff-Com: -0.295D+00 0.642D+00 0.653D+00
 Coeff-En:   0.000D+00 0.000D+00 0.100D+01
 Coeff:     -0.261D+00 0.567D+00 0.694D+00
 Gap=     0.252 Goal=   None    Shift=    0.000
 RMSDP=3.57D-03 MaxDP=5.71D-01 DE=-1.26D-01 OVMax= 4.66D-02

 Cycle   4  Pass 1  IDiag  1:
 RMSU=  1.18D-03    CP:  6.69D-01  2.03D+00  8.24D-01
 E= -1143.53968128824     Delta-E=       -0.043215037909 Rises=F Damp=F
 DIIS: error= 3.51D-03 at cycle   4 NSaved=   4.
 NSaved= 4 IEnMin= 4 EnMin= -1143.53968128824     IErMin= 4 ErrMin= 3.51D-03
 ErrMax= 3.51D-03  0.00D+00 EMaxC= 1.00D-01 BMatC= 4.10D-03 BMatP= 6.52D-02
 IDIUse=3 WtCom= 9.65D-01 WtEn= 3.51D-02
 Coeff-Com: -0.101D+00 0.218D+00 0.332D+00 0.551D+00
 Coeff-En:   0.000D+00 0.000D+00 0.000D+00 0.100D+01
 Coeff:     -0.976D-01 0.210D+00 0.321D+00 0.567D+00
 Gap=     0.251 Goal=   None    Shift=    0.000
 RMSDP=4.47D-04 MaxDP=3.56D-02 DE=-4.32D-02 OVMax= 7.31D-03

 Cycle   5  Pass 1  IDiag  1:
 RMSU=  3.52D-04    CP:  6.68D-01  2.05D+00  8.71D-01  9.01D-01
 E= -1143.54238252113     Delta-E=       -0.002701232896 Rises=F Damp=F
 DIIS: error= 3.98D-04 at cycle   5 NSaved=   5.
 NSaved= 5 IEnMin= 5 EnMin= -1143.54238252113     IErMin= 5 ErrMin= 3.98D-04
 ErrMax= 3.98D-04  0.00D+00 EMaxC= 1.00D-01 BMatC= 7.50D-05 BMatP= 4.10D-03
 IDIUse=3 WtCom= 9.96D-01 WtEn= 3.98D-03
 Coeff-Com:  0.203D-01-0.449D-01-0.230D-01 0.798D-01 0.968D+00
 Coeff-En:   0.000D+00 0.000D+00 0.000D+00 0.000D+00 0.100D+01
 Coeff:      0.202D-01-0.447D-01-0.229D-01 0.794D-01 0.968D+00
 Gap=     0.253 Goal=   None    Shift=    0.000
 RMSDP=6.15D-04 MaxDP=8.97D-02 DE=-2.70D-03 OVMax= 3.80D-03

 Cycle   6  Pass 1  IDiag  1:
 RMSU=  1.33D-04    CP:  6.60D-01  2.08D+00  9.09D-01  1.10D+00  1.25D+00
 E= -1143.54251797566     Delta-E=       -0.000135454529 Rises=F Damp=F
 DIIS: error= 4.78D-04 at cycle   6 NSaved=   6.
 NSaved= 6 IEnMin= 6 EnMin= -1143.54251797566     IErMin= 5 ErrMin= 3.98D-04
 ErrMax= 4.78D-04  0.00D+00 EMaxC= 1.00D-01 BMatC= 2.97D-05 BMatP= 7.50D-05
 IDIUse=3 WtCom= 9.96D-01 WtEn= 3.98D-03
 Coeff-Com:  0.213D-01-0.461D-01-0.501D-01-0.347D-01 0.466D+00 0.644D+00
 Coeff-En:   0.000D+00 0.000D+00 0.000D+00 0.000D+00 0.000D+00 0.100D+01
 Coeff:      0.212D-01-0.459D-01-0.499D-01-0.346D-01 0.464D+00 0.645D+00
 Gap=     0.253 Goal=   None    Shift=    0.000
 RMSDP=1.25D-04 MaxDP=1.67D-02 DE=-1.35D-04 OVMax= 2.69D-03

 Cycle   7  Pass 1  IDiag  1:
 RMSU=  4.44D-05    CP:  6.58D-01  2.08D+00  9.16D-01  1.14D+00  1.34D+00
                    CP:  1.13D+00
 E= -1143.54255300191     Delta-E=       -0.000035026254 Rises=F Damp=F
 DIIS: error= 8.15D-05 at cycle   7 NSaved=   7.
 NSaved= 7 IEnMin= 7 EnMin= -1143.54255300191     IErMin= 7 ErrMin= 8.15D-05
 ErrMax= 8.15D-05  0.00D+00 EMaxC= 1.00D-01 BMatC= 2.48D-06 BMatP= 2.97D-05
 IDIUse=1 WtCom= 1.00D+00 WtEn= 0.00D+00
 Coeff-Com:  0.128D-03-0.143D-03-0.494D-02-0.192D-01-0.747D-01 0.156D+00
 Coeff-Com:  0.943D+00
 Coeff:      0.128D-03-0.143D-03-0.494D-02-0.192D-01-0.747D-01 0.156D+00
 Coeff:      0.943D+00
 Gap=     0.254 Goal=   None    Shift=    0.000
 RMSDP=6.84D-05 MaxDP=9.34D-03 DE=-3.50D-05 OVMax= 1.13D-03

 Cycle   8  Pass 1  IDiag  1:
 RMSU=  2.07D-05    CP:  6.58D-01  2.09D+00  9.18D-01  1.16D+00  1.38D+00
                    CP:  1.31D+00  1.19D+00
 E= -1143.54255897488     Delta-E=       -0.000005972969 Rises=F Damp=F
 DIIS: error= 4.82D-05 at cycle   8 NSaved=   8.
 NSaved= 8 IEnMin= 8 EnMin= -1143.54255897488     IErMin= 8 ErrMin= 4.82D-05
 ErrMax= 4.82D-05  0.00D+00 EMaxC= 1.00D-01 BMatC= 3.76D-07 BMatP= 2.48D-06
 IDIUse=1 WtCom= 1.00D+00 WtEn= 0.00D+00
 Coeff-Com: -0.328D-02 0.712D-02 0.631D-02-0.153D-02-0.948D-01-0.220D-01
 Coeff-Com:  0.265D+00 0.843D+00
 Coeff:     -0.328D-02 0.712D-02 0.631D-02-0.153D-02-0.948D-01-0.220D-01
 Coeff:      0.265D+00 0.843D+00
 Gap=     0.254 Goal=   None    Shift=    0.000
 RMSDP=1.52D-05 MaxDP=1.55D-03 DE=-5.97D-06 OVMax= 5.17D-04

 Cycle   9  Pass 1  IDiag  1:
 RMSU=  5.59D-06    CP:  6.58D-01  2.09D+00  9.18D-01  1.16D+00  1.38D+00
                    CP:  1.39D+00  1.25D+00  1.27D+00
 E= -1143.54256004022     Delta-E=       -0.000001065336 Rises=F Damp=F
 DIIS: error= 2.66D-05 at cycle   9 NSaved=   9.
 NSaved= 9 IEnMin= 9 EnMin= -1143.54256004022     IErMin= 9 ErrMin= 2.66D-05
 ErrMax= 2.66D-05  0.00D+00 EMaxC= 1.00D-01 BMatC= 6.44D-08 BMatP= 3.76D-07
 IDIUse=1 WtCom= 1.00D+00 WtEn= 0.00D+00
 Coeff-Com: -0.415D-03 0.872D-03 0.162D-02 0.227D-02-0.180D-02-0.185D-01
 Coeff-Com: -0.162D+00 0.153D+00 0.103D+01
 Coeff:     -0.415D-03 0.872D-03 0.162D-02 0.227D-02-0.180D-02-0.185D-01
 Coeff:     -0.162D+00 0.153D+00 0.103D+01
 Gap=     0.254 Goal=   None    Shift=    0.000
 RMSDP=6.20D-06 MaxDP=3.36D-04 DE=-1.07D-06 OVMax= 3.64D-04

 Cycle  10  Pass 1  IDiag  1:
 RMSU=  3.39D-06    CP:  6.58D-01  2.09D+00  9.18D-01  1.16D+00  1.38D+00
                    CP:  1.40D+00  1.29D+00  1.45D+00  1.31D+00
 E= -1143.54256028363     Delta-E=       -0.000000243416 Rises=F Damp=F
 DIIS: error= 7.24D-06 at cycle  10 NSaved=  10.
 NSaved=10 IEnMin=10 EnMin= -1143.54256028363     IErMin=10 ErrMin= 7.24D-06
 ErrMax= 7.24D-06  0.00D+00 EMaxC= 1.00D-01 BMatC= 1.02D-08 BMatP= 6.44D-08
 IDIUse=1 WtCom= 1.00D+00 WtEn= 0.00D+00
 Coeff-Com:  0.265D-03-0.577D-03-0.354D-03 0.626D-03 0.971D-02 0.152D-02
 Coeff-Com: -0.785D-01-0.612D-01 0.303D+00 0.825D+00
 Coeff:      0.265D-03-0.577D-03-0.354D-03 0.626D-03 0.971D-02 0.152D-02
 Coeff:     -0.785D-01-0.612D-01 0.303D+00 0.825D+00
 Gap=     0.254 Goal=   None    Shift=    0.000
 RMSDP=2.22D-06 MaxDP=1.63D-04 DE=-2.43D-07 OVMax= 8.88D-05

 Cycle  11  Pass 1  IDiag  1:
 RMSU=  1.26D-06    CP:  6.58D-01  2.09D+00  9.18D-01  1.16D+00  1.38D+00
                    CP:  1.40D+00  1.26D+00  1.47D+00  1.45D+00  1.21D+00
 E= -1143.54256031526     Delta-E=       -0.000000031630 Rises=F Damp=F
 DIIS: error= 3.84D-06 at cycle  11 NSaved=  11.
 NSaved=11 IEnMin=11 EnMin= -1143.54256031526     IErMin=11 ErrMin= 3.84D-06
 ErrMax= 3.84D-06  0.00D+00 EMaxC= 1.00D-01 BMatC= 2.04D-09 BMatP= 1.02D-08
 IDIUse=1 WtCom= 1.00D+00 WtEn= 0.00D+00
 Coeff-Com:  0.159D-03-0.342D-03-0.441D-03-0.217D-03 0.347D-02 0.539D-02
 Coeff-Com:  0.633D-02-0.581D-01-0.109D+00 0.216D+00 0.936D+00
 Coeff:      0.159D-03-0.342D-03-0.441D-03-0.217D-03 0.347D-02 0.539D-02
 Coeff:      0.633D-02-0.581D-01-0.109D+00 0.216D+00 0.936D+00
 Gap=     0.254 Goal=   None    Shift=    0.000
 RMSDP=1.59D-06 MaxDP=1.12D-04 DE=-3.16D-08 OVMax= 6.42D-05

 Cycle  12  Pass 1  IDiag  1:
 RMSU=  8.12D-07    CP:  6.58D-01  2.09D+00  9.18D-01  1.16D+00  1.38D+00
                    CP:  1.40D+00  1.26D+00  1.46D+00  1.52D+00  1.50D+00
                    CP:  1.28D+00
 E= -1143.54256032348     Delta-E=       -0.000000008215 Rises=F Damp=F
 DIIS: error= 1.32D-06 at cycle  12 NSaved=  12.
 NSaved=12 IEnMin=12 EnMin= -1143.54256032348     IErMin=12 ErrMin= 1.32D-06
 ErrMax= 1.32D-06  0.00D+00 EMaxC= 1.00D-01 BMatC= 3.61D-10 BMatP= 2.04D-09
 IDIUse=1 WtCom= 1.00D+00 WtEn= 0.00D+00
 Coeff-Com: -0.178D-04 0.392D-04-0.246D-04-0.159D-03-0.115D-02 0.177D-02
 Coeff-Com:  0.173D-01-0.430D-02-0.819D-01-0.108D+00 0.273D+00 0.903D+00
 Coeff:     -0.178D-04 0.392D-04-0.246D-04-0.159D-03-0.115D-02 0.177D-02
 Coeff:      0.173D-01-0.430D-02-0.819D-01-0.108D+00 0.273D+00 0.903D+00
 Gap=     0.254 Goal=   None    Shift=    0.000
 RMSDP=6.69D-07 MaxDP=6.58D-05 DE=-8.22D-09 OVMax= 2.44D-05

 Cycle  13  Pass 1  IDiag  1:
 RMSU=  3.44D-07    CP:  6.58D-01  2.09D+00  9.18D-01  1.16D+00  1.38D+00
                    CP:  1.40D+00  1.26D+00  1.46D+00  1.52D+00  1.59D+00
                    CP:  1.44D+00  1.38D+00
 E= -1143.54256032485     Delta-E=       -0.000000001369 Rises=F Damp=F
 DIIS: error= 6.03D-07 at cycle  13 NSaved=  13.
 NSaved=13 IEnMin=13 EnMin= -1143.54256032485     IErMin=13 ErrMin= 6.03D-07
 ErrMax= 6.03D-07  0.00D+00 EMaxC= 1.00D-01 BMatC= 6.30D-11 BMatP= 3.61D-10
 IDIUse=1 WtCom= 1.00D+00 WtEn= 0.00D+00
 Coeff-Com: -0.167D-04 0.363D-04 0.476D-04-0.167D-04-0.672D-03-0.243D-03
 Coeff-Com:  0.128D-02 0.725D-02 0.424D-02-0.582D-01-0.110D+00 0.182D+00
 Coeff-Com:  0.974D+00
 Coeff:     -0.167D-04 0.363D-04 0.476D-04-0.167D-04-0.672D-03-0.243D-03
 Coeff:      0.128D-02 0.725D-02 0.424D-02-0.582D-01-0.110D+00 0.182D+00
 Coeff:      0.974D+00
 Gap=     0.254 Goal=   None    Shift=    0.000
 RMSDP=4.61D-07 MaxDP=4.44D-05 DE=-1.37D-09 OVMax= 1.15D-05

 Cycle  14  Pass 1  IDiag  1:
 RMSU=  1.18D-07    CP:  6.58D-01  2.09D+00  9.18D-01  1.16D+00  1.38D+00
                    CP:  1.39D+00  1.26D+00  1.45D+00  1.51D+00  1.63D+00
                    CP:  1.50D+00  1.72D+00  1.20D+00
 E= -1143.54256032520     Delta-E=       -0.000000000347 Rises=F Damp=F
 DIIS: error= 2.47D-07 at cycle  14 NSaved=  14.
 NSaved=14 IEnMin=14 EnMin= -1143.54256032520     IErMin=14 ErrMin= 2.47D-07
 ErrMax= 2.47D-07  0.00D+00 EMaxC= 1.00D-01 BMatC= 7.60D-12 BMatP= 6.30D-11
 IDIUse=1 WtCom= 1.00D+00 WtEn= 0.00D+00
 Coeff-Com:  0.756D-06-0.156D-05 0.111D-04 0.121D-04 0.473D-06-0.226D-03
 Coeff-Com: -0.186D-02 0.201D-02 0.122D-01 0.234D-03-0.608D-01-0.773D-01
 Coeff-Com:  0.202D+00 0.923D+00
 Coeff:      0.756D-06-0.156D-05 0.111D-04 0.121D-04 0.473D-06-0.226D-03
 Coeff:     -0.186D-02 0.201D-02 0.122D-01 0.234D-03-0.608D-01-0.773D-01
 Coeff:      0.202D+00 0.923D+00
 Gap=     0.254 Goal=   None    Shift=    0.000
 RMSDP=1.36D-07 MaxDP=1.37D-05 DE=-3.47D-10 OVMax= 3.90D-06

 Cycle  15  Pass 1  IDiag  1:
 RMSU=  4.21D-08    CP:  6.58D-01  2.09D+00  9.18D-01  1.16D+00  1.38D+00
                    CP:  1.39D+00  1.26D+00  1.45D+00  1.51D+00  1.64D+00
                    CP:  1.52D+00  1.83D+00  1.32D+00  1.27D+00
 E= -1143.54256032512     Delta-E=        0.000000000080 Rises=F Damp=F
 DIIS: error= 9.29D-08 at cycle  15 NSaved=  15.
 NSaved=15 IEnMin=14 EnMin= -1143.54256032520     IErMin=15 ErrMin= 9.29D-08
 ErrMax= 9.29D-08  0.00D+00 EMaxC= 1.00D-01 BMatC= 1.68D-12 BMatP= 7.60D-12
 IDIUse=1 WtCom= 1.00D+00 WtEn= 0.00D+00
 Coeff-Com:  0.240D-05-0.520D-05-0.267D-05 0.970D-05 0.103D-03-0.401D-04
 Coeff-Com: -0.654D-03-0.881D-03 0.284D-02 0.103D-01 0.397D-02-0.520D-01
 Coeff-Com: -0.129D+00 0.302D+00 0.864D+00
 Coeff:      0.240D-05-0.520D-05-0.267D-05 0.970D-05 0.103D-03-0.401D-04
 Coeff:     -0.654D-03-0.881D-03 0.284D-02 0.103D-01 0.397D-02-0.520D-01
 Coeff:     -0.129D+00 0.302D+00 0.864D+00
 Gap=     0.254 Goal=   None    Shift=    0.000
 RMSDP=4.87D-08 MaxDP=3.41D-06 DE= 7.96D-11 OVMax= 1.44D-06

 Cycle  16  Pass 1  IDiag  1:
 RMSU=  1.79D-08    CP:  6.58D-01  2.09D+00  9.18D-01  1.16D+00  1.38D+00
                    CP:  1.40D+00  1.26D+00  1.45D+00  1.51D+00  1.64D+00
                    CP:  1.52D+00  1.86D+00  1.33D+00  1.45D+00  1.19D+00
 E= -1143.54256032536     Delta-E=       -0.000000000240 Rises=F Damp=F
 DIIS: error= 3.11D-08 at cycle  16 NSaved=  16.
 NSaved=16 IEnMin=16 EnMin= -1143.54256032536     IErMin=16 ErrMin= 3.11D-08
 ErrMax= 3.11D-08  0.00D+00 EMaxC= 1.00D-01 BMatC= 1.63D-13 BMatP= 1.68D-12
 IDIUse=1 WtCom= 1.00D+00 WtEn= 0.00D+00
 Coeff-Com:  0.450D-06-0.964D-06-0.178D-05 0.132D-05 0.213D-04 0.207D-04
 Coeff-Com:  0.145D-03-0.534D-03-0.998D-03 0.228D-02 0.781D-02-0.128D-02
 Coeff-Com: -0.562D-01-0.482D-01 0.135D+00 0.961D+00
 Coeff:      0.450D-06-0.964D-06-0.178D-05 0.132D-05 0.213D-04 0.207D-04
 Coeff:      0.145D-03-0.534D-03-0.998D-03 0.228D-02 0.781D-02-0.128D-02
 Coeff:     -0.562D-01-0.482D-01 0.135D+00 0.961D+00
 Gap=     0.254 Goal=   None    Shift=    0.000
 RMSDP=1.76D-08 MaxDP=1.25D-06 DE=-2.40D-10 OVMax= 6.23D-07

 Cycle  17  Pass 1  IDiag  1:
 RMSU=  6.26D-09    CP:  6.58D-01  2.09D+00  9.18D-01  1.16D+00  1.38D+00
                    CP:  1.40D+00  1.26D+00  1.45D+00  1.51D+00  1.64D+00
                    CP:  1.52D+00  1.86D+00  1.33D+00  1.52D+00  1.36D+00
                    CP:  1.25D+00
 E= -1143.54256032521     Delta-E=        0.000000000146 Rises=F Damp=F
 DIIS: error= 1.18D-08 at cycle  17 NSaved=  17.
 NSaved=17 IEnMin=16 EnMin= -1143.54256032536     IErMin=17 ErrMin= 1.18D-08
 ErrMax= 1.18D-08  0.00D+00 EMaxC= 1.00D-01 BMatC= 4.64D-14 BMatP= 1.63D-13
 IDIUse=1 WtCom= 1.00D+00 WtEn= 0.00D+00
 Coeff-Com:  0.667D-07-0.130D-06-0.679D-06-0.143D-05-0.588D-05 0.163D-04
 Coeff-Com:  0.144D-03-0.823D-04-0.767D-03-0.579D-03 0.184D-02 0.835D-02
 Coeff-Com:  0.694D-03-0.575D-01-0.997D-01 0.331D+00 0.816D+00
 Coeff:      0.667D-07-0.130D-06-0.679D-06-0.143D-05-0.588D-05 0.163D-04
 Coeff:      0.144D-03-0.823D-04-0.767D-03-0.579D-03 0.184D-02 0.835D-02
 Coeff:      0.694D-03-0.575D-01-0.997D-01 0.331D+00 0.816D+00
 Gap=     0.254 Goal=   None    Shift=    0.000
 RMSDP=7.60D-09 MaxDP=7.20D-07 DE= 1.46D-10 OVMax= 2.33D-07

 Error on total polarization charges =  0.02839
 SCF Done:  E(RCAM-B3LYP) =  -1143.54256033     A.U. after   17 cycles
            NFock= 17  Conv=0.76D-08     -V/T= 2.0037
 KE= 1.139285270884D+03 PE=-6.774136394538D+03 EE= 2.460399718137D+03
 Leave Link  502 at Mon Feb 17 09:32:25 2020, MaxMem=  6710886400 cpu:      4550.8
 (Enter /opt/sys/apps/gaussian09/D.01/g09/l801.exe)
 DoSCS=F DFT=T ScalE2(SS,OS)=  1.000000  1.000000
 ExpMin= 3.60D-02 ExpMax= 8.59D+03 ExpMxC= 1.30D+03 IAcc=3 IRadAn=         5 AccDes= 0.00D+00
 HarFok:  IExCor=  205 AccDes= 0.00D+00 IRadAn=         5 IDoV=-2 UseB2=F ITyADJ=14
 ICtDFT= 12500011 ScaDFX=  1.000000  1.000000  1.000000  1.000000
 Largest valence mixing into a core orbital is  4.75D-05
 Largest core mixing into a valence orbital is  1.25D-05
 Range of M.O.s used for correlation:    26   611
 NBasis=   620 NAE=    86 NBE=    86 NFC=    25 NFV=     0
 NROrb=    586 NOA=    61 NOB=    61 NVA=   525 NVB=   525

 **** Warning!!: The largest alpha MO coefficient is  0.11989981D+03

 Leave Link  801 at Mon Feb 17 09:32:26 2020, MaxMem=  6710886400 cpu:         4.2
 (Enter /opt/sys/apps/gaussian09/D.01/g09/l914.exe)
 RHF ground state
 MDV=  6710886400 DFT=T DoStab=F Mixed=T DoRPA=T DoScal=F NonHer=T
 Would need an additional        106167300000 words for in-memory AO integral storage.
 NEqPCM:  Using non-equilibrium solvation (IEInf=1, Eps=  24.8520, EpsInf=   1.8526)
 Inv3:  Mode=1 IEnd=    24883200.
 Iteration    1 A*A^-1 deviation from unit magnitude is 7.99D-15 for   2857.
 Iteration    1 A*A^-1 deviation from orthogonality  is 1.67D-15 for   2870   1761.
 Iteration    1 A^-1*A deviation from unit magnitude is 7.99D-15 for   2857.
 Iteration    1 A^-1*A deviation from orthogonality  is 2.07D-15 for   2037   1919.
 Making orbital integer symmetry assigments:
    40 initial guesses have been made.
 Convergence on wavefunction:    0.000001000000000
 Davidson Disk Diagonalization:  ConvIn= 1.00D-06 SkipCon=T Conv= 1.00D-06.
 Max sub-space:   200 roots to seek:    40 dimension of matrix:        64050
 Iteration     1 Dimension    40 NMult     0 NNew     40
 CISAX will form    40 AO SS matrices at one time.
 NMat=    40 NSing=    40 JSym2X= 0.
 FoFJK:  IHMeth= 1 ICntrl=       0 DoSepK=T KAlg= 0 I1Cent=   0 FoldK=F
 IRaf=         1 NMat=  80 IRICut=       1 DoRegI=T DoRafI=F ISym2E= 0.
 New state      2 was old state      6
 New state      3 was old state      2
 New state      4 was old state     10
 New state      5 was old state     13
 New state      6 was old state      9
 New state      7 was old state     16
 New state      8 was old state      4
 New state      9 was old state     31
 New state     10 was old state     18
 Excitation Energies [eV] at current iteration:
 Root      1 :     3.696240113791923
 Root      2 :     4.821393039375129
 Root      3 :     5.295960362281207
 Root      4 :     5.357787689704192
 Root      5 :     5.514455712112082
 Root      6 :     5.543152667351309
 Root      7 :     5.617258105099456
 Root      8 :     5.722030109605960
 Root      9 :     5.771167468521619
 Root     10 :     5.800046243387190
 Root     11 :     5.813234545489941
 Root     12 :     5.934796791558448
 Root     13 :     6.005121151634868
 Root     14 :     6.033710830431259
 Root     15 :     6.099835300353926
 Root     16 :     6.178374795741250
 Root     17 :     6.281160871265115
 Root     18 :     6.314388111723511
 Root     19 :     6.425675809919078
 Root     20 :     6.459846308874754
 Root     21 :     6.478667653142205
 Root     22 :     6.514005500991181
 Root     23 :     6.785707671723927
 Root     24 :     6.875533104379327
 Root     25 :     6.905602057275915
 Root     26 :     7.011807545202382
 Root     27 :     7.040951815660731
 Root     28 :     7.143016076878340
 Root     29 :     7.272734784961439
 Root     30 :     7.316637812349908
 Root     31 :     7.429465449503181
 Root     32 :     7.512909932468889
 Root     33 :     7.616385443076814
 Root     34 :     7.646074492181668
 Root     35 :     7.684080581793360
 Root     36 :     7.730652432018077
 Root     37 :     7.833993030508784
 Root     38 :     8.056582791220539
 Root     39 :     8.110215049073719
 Root     40 :     8.328207641590341
 Iteration     2 Dimension    60 NMult    40 NNew     20
 CISAX will form    20 AO SS matrices at one time.
 NMat=    20 NSing=    20 JSym2X= 0.
 Root      1 not converged, maximum delta is    0.071623231356689
 Root      2 not converged, maximum delta is    0.064923426794195
 Root      3 not converged, maximum delta is    0.313441913998938
 New state      4 was old state     10
 Root      4 not converged, maximum delta is    0.300545535374878
 New state      5 was old state      6
 Root      5 not converged, maximum delta is    0.473951556201281
 New state      6 was old state      7
 Root      6 not converged, maximum delta is    0.274652624431395
 New state      7 was old state      4
 Root      7 not converged, maximum delta is    0.238391920202064
 New state      8 was old state      5
 Root      8 not converged, maximum delta is    0.190633187458114
 New state      9 was old state      8
 Root      9 not converged, maximum delta is    0.243383330024110
 New state     10 was old state      9
 Root     10 not converged, maximum delta is    0.223273251652554
 Excitation Energies [eV] at current iteration:
 Root      1 :     3.065460673347661   Change is   -0.630779440444262
 Root      2 :     4.330468570667067   Change is   -0.490924468708062
 Root      3 :     4.788541214019030   Change is   -0.507419148262178
 Root      4 :     4.891106976237533   Change is   -0.908939267149657
 Root      5 :     4.922424631515757   Change is   -0.620728035835552
 Root      6 :     5.007471240057934   Change is   -0.609786865041522
 Root      7 :     5.053828420294638   Change is   -0.303959269409553
 Root      8 :     5.161083732773174   Change is   -0.353371979338908
 Root      9 :     5.386133843458565   Change is   -0.335896266147395
 Root     10 :     5.441264294971230   Change is   -0.329903173550389
 Iteration     3 Dimension    80 NMult    60 NNew     20
 CISAX will form    20 AO SS matrices at one time.
 NMat=    20 NSing=    20 JSym2X= 0.
 Root      1 not converged, maximum delta is    0.016067568733510
 Root      2 not converged, maximum delta is    0.019484326483824
 New state      3 was old state      4
 Root      3 not converged, maximum delta is    0.390964460371969
 New state      4 was old state      3
 Root      4 not converged, maximum delta is    0.249800512086043
 Root      5 not converged, maximum delta is    0.216471321018816
 Root      6 not converged, maximum delta is    0.143154942836265
 Root      7 not converged, maximum delta is    0.145857148599440
 Root      8 not converged, maximum delta is    0.204658425972763
 Root      9 not converged, maximum delta is    0.388116862692099
 Root     10 not converged, maximum delta is    0.347810582973688
 Excitation Energies [eV] at current iteration:
 Root      1 :     3.011067256863977   Change is   -0.054393416483684
 Root      2 :     4.287803433864176   Change is   -0.042665136802892
 Root      3 :     4.715976621830985   Change is   -0.175130354406548
 Root      4 :     4.740047016266742   Change is   -0.048494197752287
 Root      5 :     4.773292316647120   Change is   -0.149132314868638
 Root      6 :     4.883616571930707   Change is   -0.123854668127227
 Root      7 :     5.028529355188007   Change is   -0.025299065106632
 Root      8 :     5.059462069231331   Change is   -0.101621663541843
 Root      9 :     5.298938160764718   Change is   -0.087195682693848
 Root     10 :     5.377676191316451   Change is   -0.063588103654779
 Iteration     4 Dimension   100 NMult    80 NNew     20
 CISAX will form    20 AO SS matrices at one time.
 NMat=    20 NSing=    20 JSym2X= 0.
 Root      1 not converged, maximum delta is    0.008316401079036
 Root      2 not converged, maximum delta is    0.003571249856059
 Root      3 not converged, maximum delta is    0.044372701183491
 Root      4 not converged, maximum delta is    0.050981485436077
 Root      5 not converged, maximum delta is    0.027337066576274
 Root      6 not converged, maximum delta is    0.024546893006037
 Root      7 not converged, maximum delta is    0.130763537277364
 Root      8 not converged, maximum delta is    0.123311459597142
 Root      9 not converged, maximum delta is    0.059574039677079
 Root     10 not converged, maximum delta is    0.037094298634331
 Excitation Energies [eV] at current iteration:
 Root      1 :     3.000849443767794   Change is   -0.010217813096183
 Root      2 :     4.282043117250884   Change is   -0.005760316613291
 Root      3 :     4.696405683671125   Change is   -0.019570938159860
 Root      4 :     4.729734916016259   Change is   -0.010312100250483
 Root      5 :     4.762507798647561   Change is   -0.010784517999559
 Root      6 :     4.866544470338436   Change is   -0.017072101592271
 Root      7 :     5.020069559746699   Change is   -0.008459795441308
 Root      8 :     5.044836968935694   Change is   -0.014625100295637
 Root      9 :     5.268120462904631   Change is   -0.030817697860086
 Root     10 :     5.372071607909199   Change is   -0.005604583407252
 Iteration     5 Dimension   120 NMult   100 NNew     20
 CISAX will form    20 AO SS matrices at one time.
 NMat=    20 NSing=    20 JSym2X= 0.
 Root      1 not converged, maximum delta is    0.001762464295137
 Root      2 not converged, maximum delta is    0.001977434348227
 Root      3 not converged, maximum delta is    0.003807082234556
 Root      4 not converged, maximum delta is    0.004137136720997
 Root      5 not converged, maximum delta is    0.003928718902908
 Root      6 not converged, maximum delta is    0.009927141106633
 Root      7 not converged, maximum delta is    0.023126068167925
 Root      8 not converged, maximum delta is    0.030361045636550
 Root      9 not converged, maximum delta is    0.053128106133873
 Root     10 not converged, maximum delta is    0.007861797587299
 Excitation Energies [eV] at current iteration:
 Root      1 :     2.999800423826291   Change is   -0.001049019941502
 Root      2 :     4.281416372947489   Change is   -0.000626744303395
 Root      3 :     4.694205985123252   Change is   -0.002199698547873
 Root      4 :     4.728478421134584   Change is   -0.001256494881675
 Root      5 :     4.761249423459895   Change is   -0.001258375187666
 Root      6 :     4.862931985196635   Change is   -0.003612485141801
 Root      7 :     5.017664639827249   Change is   -0.002404919919450
 Root      8 :     5.043004945152571   Change is   -0.001832023783122
 Root      9 :     5.245835070990518   Change is   -0.022285391914113
 Root     10 :     5.371421417296213   Change is   -0.000650190612985
 Iteration     6 Dimension   140 NMult   120 NNew     20
 CISAX will form    20 AO SS matrices at one time.
 NMat=    20 NSing=    20 JSym2X= 0.
 Root      1 not converged, maximum delta is    0.000397114583245
 Root      2 not converged, maximum delta is    0.000574613823454
 Root      3 not converged, maximum delta is    0.001529183858379
 Root      4 not converged, maximum delta is    0.000858474770361
 Root      5 not converged, maximum delta is    0.001836813886992
 Root      6 not converged, maximum delta is    0.004376845431599
 Root      7 not converged, maximum delta is    0.015567967560932
 Root      8 not converged, maximum delta is    0.016584308189712
 Root      9 not converged, maximum delta is    0.075659409390073
 Root     10 not converged, maximum delta is    0.014733830250505
 Excitation Energies [eV] at current iteration:
 Root      1 :     2.999742293997538   Change is   -0.000058129828754
 Root      2 :     4.281354611475559   Change is   -0.000061761471930
 Root      3 :     4.693888179522412   Change is   -0.000317805600840
 Root      4 :     4.728321521593108   Change is   -0.000156899541476
 Root      5 :     4.761036278138918   Change is   -0.000213145320978
 Root      6 :     4.862269881496187   Change is   -0.000662103700448
 Root      7 :     5.016308499710119   Change is   -0.001356140117130
 Root      8 :     5.042251650286024   Change is   -0.000753294866548
 Root      9 :     5.220803852598245   Change is   -0.025031218392272
 Root     10 :     5.371134346948899   Change is   -0.000287070347314
 Iteration     7 Dimension   160 NMult   140 NNew     20
 CISAX will form    20 AO SS matrices at one time.
 NMat=    20 NSing=    20 JSym2X= 0.
 Root      1 not converged, maximum delta is    0.000117830555975
 Root      2 not converged, maximum delta is    0.000254872787618
 Root      3 not converged, maximum delta is    0.001621864452559
 Root      4 not converged, maximum delta is    0.000397014353314
 Root      5 not converged, maximum delta is    0.001182977411360
 Root      6 not converged, maximum delta is    0.002489883236640
 Root      7 not converged, maximum delta is    0.008709369110410
 Root      8 not converged, maximum delta is    0.008395655394326
 Root      9 not converged, maximum delta is    0.037317320068746
 Root     10 not converged, maximum delta is    0.097538336034348
 Excitation Energies [eV] at current iteration:
 Root      1 :     2.999738166142708   Change is   -0.000004127854829
 Root      2 :     4.281347592347386   Change is   -0.000007019128173
 Root      3 :     4.693826251550952   Change is   -0.000061927971460
 Root      4 :     4.728300231256173   Change is   -0.000021290336935
 Root      5 :     4.760996072146185   Change is   -0.000040205992733
 Root      6 :     4.862133266611808   Change is   -0.000136614884379
 Root      7 :     5.015575164034888   Change is   -0.000733335675231
 Root      8 :     5.041929854774889   Change is   -0.000321795511135
 Root      9 :     5.208321920693414   Change is   -0.012481931904832
 Root     10 :     5.369963158405134   Change is   -0.001171188543766
 Iteration     8 Dimension   180 NMult   160 NNew     20
 CISAX will form    20 AO SS matrices at one time.
 NMat=    20 NSing=    20 JSym2X= 0.
 Root      1 not converged, maximum delta is    0.000017847865552
 Root      2 not converged, maximum delta is    0.000089917508667
 Root      3 not converged, maximum delta is    0.000544260172596
 Root      4 not converged, maximum delta is    0.000146772767890
 Root      5 not converged, maximum delta is    0.000447223534327
 Root      6 not converged, maximum delta is    0.001123439609408
 Root      7 not converged, maximum delta is    0.003792421579481
 Root      8 not converged, maximum delta is    0.002226332178021
 Root      9 not converged, maximum delta is    0.018696856840450
 Root     10 not converged, maximum delta is    0.379737378293496
 Excitation Energies [eV] at current iteration:
 Root      1 :     2.999737981738345   Change is   -0.000000184404364
 Root      2 :     4.281346834802651   Change is   -0.000000757544735
 Root      3 :     4.693815309147006   Change is   -0.000010942403947
 Root      4 :     4.728297607906418   Change is   -0.000002623349755
 Root      5 :     4.760989153408871   Change is   -0.000006918737314
 Root      6 :     4.862106025011969   Change is   -0.000027241599839
 Root      7 :     5.015364298787626   Change is   -0.000210865247262
 Root      8 :     5.041849271381706   Change is   -0.000080583393182
 Root      9 :     5.203913732357068   Change is   -0.004408188336346
 Root     10 :     5.325320500328553   Change is   -0.044642658076580
 Iteration     9 Dimension   200 NMult   180 NNew     20
 CISAX will form    20 AO SS matrices at one time.
 NMat=    20 NSing=    20 JSym2X= 0.
 Root      1 not converged, maximum delta is    0.000004828281335
 Root      2 not converged, maximum delta is    0.000034274388486
 Root      3 not converged, maximum delta is    0.000150082741176
 Root      4 not converged, maximum delta is    0.000079143752964
 Root      5 not converged, maximum delta is    0.000177635575711
 Root      6 not converged, maximum delta is    0.000245662168878
 Root      7 not converged, maximum delta is    0.001466642913251
 Root      8 not converged, maximum delta is    0.000984622433926
 Root      9 not converged, maximum delta is    0.011509178103631
 Root     10 not converged, maximum delta is    0.027702757512029
 Excitation Energies [eV] at current iteration:
 Root      1 :     2.999737972857405   Change is   -0.000000008880940
 Root      2 :     4.281346726442576   Change is   -0.000000108360076
 Root      3 :     4.693813781651441   Change is   -0.000001527495565
 Root      4 :     4.728297234889595   Change is   -0.000000373016822
 Root      5 :     4.760987713536920   Change is   -0.000001439871951
 Root      6 :     4.862102204200594   Change is   -0.000003820811375
 Root      7 :     5.015309911003305   Change is   -0.000054387784321
 Root      8 :     5.041828278354953   Change is   -0.000020993026754
 Root      9 :     5.202116772377696   Change is   -0.001796959979372
 Root     10 :     5.305708324356522   Change is   -0.019612175972031
 Davidson failed to converge within maximum sub-space dimensions.
  Restart with updated initial guess:
 Iteration     1 Dimension    40 NMult   200 NNew     40
 CISAX will form    40 AO SS matrices at one time.
 NMat=    40 NSing=    40 JSym2X= 0.
 Excitation Energies [eV] at current iteration:
 Root      1 :     2.999737973557517
 Root      2 :     4.281346714688430
 Root      3 :     4.693813595757526
 Root      4 :     4.728297179420036
 Root      5 :     4.760987441117568
 Root      6 :     4.862101668869825
 Root      7 :     5.015297711996416
 Root      8 :     5.041823442706813
 Root      9 :     5.201573174940260
 Root     10 :     5.301661037297698
 Iteration     2 Dimension    60 NMult   240 NNew     20
 CISAX will form    20 AO SS matrices at one time.
 NMat=    20 NSing=    20 JSym2X= 0.
 Root      1 has converged.
 Root      2 not converged, maximum delta is    0.000007163384760
 Root      3 not converged, maximum delta is    0.000030871354663
 Root      4 not converged, maximum delta is    0.000015381169237
 Root      5 not converged, maximum delta is    0.000051207812187
 Root      6 not converged, maximum delta is    0.000054516055055
 Root      7 not converged, maximum delta is    0.000416503571530
 Root      8 not converged, maximum delta is    0.000269982262924
 Root      9 not converged, maximum delta is    0.003439147255665
 Root     10 not converged, maximum delta is    0.007398559563062
 Excitation Energies [eV] at current iteration:
 Root      1 :     2.999737973509669   Change is   -0.000000000047849
 Root      2 :     4.281346711608269   Change is   -0.000000003080160
 Root      3 :     4.693813546962436   Change is   -0.000000048795090
 Root      4 :     4.728297164004784   Change is   -0.000000015415252
 Root      5 :     4.760987346673357   Change is   -0.000000094444211
 Root      6 :     4.862101500913942   Change is   -0.000000167955883
 Root      7 :     5.015293019693958   Change is   -0.000004692302457
 Root      8 :     5.041821543653857   Change is   -0.000001899052956
 Root      9 :     5.201318119135256   Change is   -0.000255055805005
 Root     10 :     5.299935016269860   Change is   -0.001726021027838
 Iteration     3 Dimension    78 NMult   260 NNew     18
 CISAX will form    18 AO SS matrices at one time.
 NMat=    18 NSing=    18 JSym2X= 0.
 Root      1 has converged.
 Root      2 not converged, maximum delta is    0.000004476882783
 Root      3 not converged, maximum delta is    0.000025441874199
 Root      4 not converged, maximum delta is    0.000013059647184
 Root      5 not converged, maximum delta is    0.000044084277440
 Root      6 not converged, maximum delta is    0.000055740249661
 Root      7 not converged, maximum delta is    0.000449347685806
 Root      8 not converged, maximum delta is    0.000299118452294
 Root      9 not converged, maximum delta is    0.004714906461342
 Root     10 not converged, maximum delta is    0.012603667824313
 Excitation Energies [eV] at current iteration:
 Root      1 :     2.999737973529838   Change is    0.000000000020170
 Root      2 :     4.281346710817636   Change is   -0.000000000790634
 Root      3 :     4.693813529244246   Change is   -0.000000017718190
 Root      4 :     4.728297158498984   Change is   -0.000000005505801
 Root      5 :     4.760987304870823   Change is   -0.000000041802534
 Root      6 :     4.862101435258313   Change is   -0.000000065655630
 Root      7 :     5.015290309689514   Change is   -0.000002710004445
 Root      8 :     5.041820415167017   Change is   -0.000001128486840
 Root      9 :     5.201111273863804   Change is   -0.000206845271452
 Root     10 :     5.298455829478113   Change is   -0.001479186791747
 Iteration     4 Dimension    96 NMult   278 NNew     18
 CISAX will form    18 AO SS matrices at one time.
 NMat=    18 NSing=    18 JSym2X= 0.
 Root      1 has converged.
 Root      2 not converged, maximum delta is    0.000001073576192
 Root      3 not converged, maximum delta is    0.000009606984716
 Root      4 not converged, maximum delta is    0.000004948570356
 Root      5 not converged, maximum delta is    0.000017860916722
 Root      6 not converged, maximum delta is    0.000025546536569
 Root      7 not converged, maximum delta is    0.000255331830185
 Root      8 not converged, maximum delta is    0.000177919552607
 Root      9 not converged, maximum delta is    0.003816912066502
 Root     10 not converged, maximum delta is    0.012211243334745
 Excitation Energies [eV] at current iteration:
 Root      1 :     2.999737973543130   Change is    0.000000000013292
 Root      2 :     4.281346710648318   Change is   -0.000000000169317
 Root      3 :     4.693813524603032   Change is   -0.000000004641214
 Root      4 :     4.728297156937209   Change is   -0.000000001561775
 Root      5 :     4.760987292436856   Change is   -0.000000012433966
 Root      6 :     4.862101415424736   Change is   -0.000000019833577
 Root      7 :     5.015289119630094   Change is   -0.000001190059420
 Root      8 :     5.041819889897751   Change is   -0.000000525269266
 Root      9 :     5.200966256764644   Change is   -0.000145017099161
 Root     10 :     5.297315526616047   Change is   -0.001140302862066
 Iteration     5 Dimension   114 NMult   296 NNew     18
 CISAX will form    18 AO SS matrices at one time.
 NMat=    18 NSing=    18 JSym2X= 0.
 Root      1 has converged.
 Root      2 has converged.
 Root      3 not converged, maximum delta is    0.000002727541178
 Root      4 not converged, maximum delta is    0.000001776265349
 Root      5 not converged, maximum delta is    0.000004672810485
 Root      6 not converged, maximum delta is    0.000006750809832
 Root      7 not converged, maximum delta is    0.000073757807114
 Root      8 not converged, maximum delta is    0.000052004173530
 Root      9 not converged, maximum delta is    0.001535118212485
 Root     10 not converged, maximum delta is    0.005375414424413
 Excitation Energies [eV] at current iteration:
 Root      1 :     2.999737973549597   Change is    0.000000000006467
 Root      2 :     4.281346710625431   Change is   -0.000000000022888
 Root      3 :     4.693813523756054   Change is   -0.000000000846978
 Root      4 :     4.728297156592247   Change is   -0.000000000344962
 Root      5 :     4.760987289993296   Change is   -0.000000002443560
 Root      6 :     4.862101411238057   Change is   -0.000000004186679
 Root      7 :     5.015288805836755   Change is   -0.000000313793340
 Root      8 :     5.041819745903187   Change is   -0.000000143994564
 Root      9 :     5.200909315856450   Change is   -0.000056940908193
 Root     10 :     5.296753590991003   Change is   -0.000561935625044
 Iteration     6 Dimension   130 NMult   314 NNew     16
 CISAX will form    16 AO SS matrices at one time.
 NMat=    16 NSing=    16 JSym2X= 0.
 Root      1 has converged.
 Root      2 has converged.
 Root      3 has converged.
 Root      4 has converged.
 Root      5 not converged, maximum delta is    0.000001662508718
 Root      6 not converged, maximum delta is    0.000002311482419
 Root      7 not converged, maximum delta is    0.000023893588498
 Root      8 not converged, maximum delta is    0.000016687365717
 Root      9 not converged, maximum delta is    0.000542157239587
 Root     10 not converged, maximum delta is    0.002238510101802
 Excitation Energies [eV] at current iteration:
 Root      1 :     2.999737973553708   Change is    0.000000000004111
 Root      2 :     4.281346710626544   Change is    0.000000000001113
 Root      3 :     4.693813523620601   Change is   -0.000000000135453
 Root      4 :     4.728297156522389   Change is   -0.000000000069858
 Root      5 :     4.760987289584951   Change is   -0.000000000408345
 Root      6 :     4.862101410508908   Change is   -0.000000000729150
 Root      7 :     5.015288745123326   Change is   -0.000000060713429
 Root      8 :     5.041819717324246   Change is   -0.000000028578941
 Root      9 :     5.200894549911104   Change is   -0.000014765945346
 Root     10 :     5.296574276423047   Change is   -0.000179314567957
 Iteration     7 Dimension   142 NMult   330 NNew     12
 CISAX will form    12 AO SS matrices at one time.
 NMat=    12 NSing=    12 JSym2X= 0.
 Root      1 has converged.
 Root      2 has converged.
 Root      3 has converged.
 Root      4 has converged.
 Root      5 has converged.
 Root      6 not converged, maximum delta is    0.000001394290740
 Root      7 not converged, maximum delta is    0.000012065789656
 Root      8 not converged, maximum delta is    0.000008163887922
 Root      9 not converged, maximum delta is    0.000213352320716
 Root     10 not converged, maximum delta is    0.000780476339999
 Excitation Energies [eV] at current iteration:
 Root      1 :     2.999737973556174   Change is    0.000000000002466
 Root      2 :     4.281346710614908   Change is   -0.000000000011636
 Root      3 :     4.693813523602107   Change is   -0.000000000018494
 Root      4 :     4.728297156519521   Change is   -0.000000000002869
 Root      5 :     4.760987289512602   Change is   -0.000000000072349
 Root      6 :     4.862101410389961   Change is   -0.000000000118946
 Root      7 :     5.015288733726218   Change is   -0.000000011397108
 Root      8 :     5.041819711746409   Change is   -0.000000005577837
 Root      9 :     5.200891026419684   Change is   -0.000003523491421
 Root     10 :     5.296528050065257   Change is   -0.000046226357789
 Iteration     8 Dimension   152 NMult   342 NNew     10
 CISAX will form    10 AO SS matrices at one time.
 NMat=    10 NSing=    10 JSym2X= 0.
 Root      1 has converged.
 Root      2 has converged.
 Root      3 has converged.
 Root      4 has converged.
 Root      5 has converged.
 Root      6 not converged, maximum delta is    0.000001087148419
 Root      7 not converged, maximum delta is    0.000008789991001
 Root      8 not converged, maximum delta is    0.000006341064740
 Root      9 not converged, maximum delta is    0.000251361478221
 Root     10 not converged, maximum delta is    0.000716285119166
 Excitation Energies [eV] at current iteration:
 Root      1 :     2.999737973541485   Change is   -0.000000000014689
 Root      2 :     4.281346710612950   Change is   -0.000000000001958
 Root      3 :     4.693813523600232   Change is   -0.000000000001875
 Root      4 :     4.728297156516130   Change is   -0.000000000003390
 Root      5 :     4.760987289504194   Change is   -0.000000000008408
 Root      6 :     4.862101410349873   Change is   -0.000000000040088
 Root      7 :     5.015288730948829   Change is   -0.000000002777389
 Root      8 :     5.041819710221488   Change is   -0.000000001524921
 Root      9 :     5.200889825155781   Change is   -0.000001201263902
 Root     10 :     5.296514277796173   Change is   -0.000013772269084
 Iteration     9 Dimension   162 NMult   352 NNew     10
 CISAX will form    10 AO SS matrices at one time.
 NMat=    10 NSing=    10 JSym2X= 0.
 Root      1 has converged.
 Root      2 has converged.
 Root      3 has converged.
 Root      4 has converged.
 Root      5 has converged.
 Root      6 has converged.
 Root      7 not converged, maximum delta is    0.000008053149841
 Root      8 not converged, maximum delta is    0.000006641274054
 Root      9 not converged, maximum delta is    0.000330326062187
 Root     10 not converged, maximum delta is    0.001243540886958
 Excitation Energies [eV] at current iteration:
 Root      1 :     2.999737973544473   Change is    0.000000000002987
 Root      2 :     4.281346710608763   Change is   -0.000000000004186
 Root      3 :     4.693813523599795   Change is   -0.000000000000437
 Root      4 :     4.728297156515262   Change is   -0.000000000000869
 Root      5 :     4.760987289501603   Change is   -0.000000000002591
 Root      6 :     4.862101410338511   Change is   -0.000000000011362
 Root      7 :     5.015288729603802   Change is   -0.000000001345027
 Root      8 :     5.041819709390514   Change is   -0.000000000830974
 Root      9 :     5.200888920054161   Change is   -0.000000905101621
 Root     10 :     5.296503575431083   Change is   -0.000010702365090
 Iteration    10 Dimension   170 NMult   362 NNew      8
 CISAX will form     8 AO SS matrices at one time.
 NMat=     8 NSing=     8 JSym2X= 0.
 Root      1 has converged.
 Root      2 has converged.
 Root      3 has converged.
 Root      4 has converged.
 Root      5 has converged.
 Root      6 has converged.
 Root      7 not converged, maximum delta is    0.000005881648226
 Root      8 not converged, maximum delta is    0.000004674146376
 Root      9 not converged, maximum delta is    0.000272158711486
 Root     10 not converged, maximum delta is    0.001855513883192
 Excitation Energies [eV] at current iteration:
 Root      1 :     2.999737973538635   Change is   -0.000000000005837
 Root      2 :     4.281346710604059   Change is   -0.000000000004704
 Root      3 :     4.693813523598516   Change is   -0.000000000001279
 Root      4 :     4.728297156506846   Change is   -0.000000000008415
 Root      5 :     4.760987289502156   Change is    0.000000000000553
 Root      6 :     4.862101410338933   Change is    0.000000000000422
 Root      7 :     5.015288728975324   Change is   -0.000000000628479
 Root      8 :     5.041819708974749   Change is   -0.000000000415765
 Root      9 :     5.200888285119426   Change is   -0.000000634934735
 Root     10 :     5.296491678534525   Change is   -0.000011896896557
 Iteration    11 Dimension   178 NMult   370 NNew      8
 CISAX will form     8 AO SS matrices at one time.
 NMat=     8 NSing=     8 JSym2X= 0.
 Root      1 has converged.
 Root      2 has converged.
 Root      3 has converged.
 Root      4 has converged.
 Root      5 has converged.
 Root      6 has converged.
 Root      7 not converged, maximum delta is    0.000003025517561
 Root      8 not converged, maximum delta is    0.000002419674606
 Root      9 not converged, maximum delta is    0.000127044587924
 Root     10 not converged, maximum delta is    0.001287514870355
 Excitation Energies [eV] at current iteration:
 Root      1 :     2.999737973527290   Change is   -0.000000000011346
 Root      2 :     4.281346710589389   Change is   -0.000000000014670
 Root      3 :     4.693813523599479   Change is    0.000000000000963
 Root      4 :     4.728297156511453   Change is    0.000000000004607
 Root      5 :     4.760987289501621   Change is   -0.000000000000535
 Root      6 :     4.862101410339373   Change is    0.000000000000440
 Root      7 :     5.015288728798986   Change is   -0.000000000176338
 Root      8 :     5.041819708856553   Change is   -0.000000000118196
 Root      9 :     5.200888060228213   Change is   -0.000000224891212
 Root     10 :     5.296484651440672   Change is   -0.000007027093854
 Iteration    12 Dimension   186 NMult   378 NNew      8
 CISAX will form     8 AO SS matrices at one time.
 NMat=     8 NSing=     8 JSym2X= 0.
 Root      1 has converged.
 Root      2 has converged.
 Root      3 has converged.
 Root      4 has converged.
 Root      5 has converged.
 Root      6 has converged.
 Root      7 not converged, maximum delta is    0.000001501670011
 Root      8 not converged, maximum delta is    0.000001030774837
 Root      9 not converged, maximum delta is    0.000074182655863
 Root     10 not converged, maximum delta is    0.000734289788359
 Excitation Energies [eV] at current iteration:
 Root      1 :     2.999737973513505   Change is   -0.000000000013785
 Root      2 :     4.281346710588315   Change is   -0.000000000001075
 Root      3 :     4.693813523598743   Change is   -0.000000000000736
 Root      4 :     4.728297156513592   Change is    0.000000000002139
 Root      5 :     4.760987289499359   Change is   -0.000000000002262
 Root      6 :     4.862101410348858   Change is    0.000000000009485
 Root      7 :     5.015288728744812   Change is   -0.000000000054173
 Root      8 :     5.041819708826715   Change is   -0.000000000029838
 Root      9 :     5.200887987921019   Change is   -0.000000072307195
 Root     10 :     5.296481304018414   Change is   -0.000003347422257
 Iteration    13 Dimension   194 NMult   386 NNew      8
 CISAX will form     8 AO SS matrices at one time.
 NMat=     8 NSing=     8 JSym2X= 0.
 Root      1 has converged.
 Root      2 has converged.
 Root      3 has converged.
 Root      4 has converged.
 Root      5 has converged.
 Root      6 has converged.
 Root      7 has converged.
 Root      8 has converged.
 Root      9 not converged, maximum delta is    0.000031530196902
 Root     10 not converged, maximum delta is    0.000364362323537
 Excitation Energies [eV] at current iteration:
 Root      1 :     2.999737973502159   Change is   -0.000000000011346
 Root      2 :     4.281346710585876   Change is   -0.000000000002439
 Root      3 :     4.693813523598131   Change is   -0.000000000000613
 Root      4 :     4.728297156519346   Change is    0.000000000005754
 Root      5 :     4.760987289499911   Change is    0.000000000000553
 Root      6 :     4.862101410345832   Change is   -0.000000000003026
 Root      7 :     5.015288728722258   Change is   -0.000000000022555
 Root      8 :     5.041819708817861   Change is   -0.000000000008854
 Root      9 :     5.200887967941193   Change is   -0.000000019979826
 Root     10 :     5.296480093482849   Change is   -0.000001210535565
 Iteration    14 Dimension   198 NMult   394 NNew      4
 CISAX will form     4 AO SS matrices at one time.
 NMat=     4 NSing=     4 JSym2X= 0.
 Root      1 has converged.
 Root      2 has converged.
 Root      3 has converged.
 Root      4 has converged.
 Root      5 has converged.
 Root      6 has converged.
 Root      7 has converged.
 Root      8 has converged.
 Root      9 not converged, maximum delta is    0.000009286278514
 Root     10 not converged, maximum delta is    0.000105715321887
 Excitation Energies [eV] at current iteration:
 Root      1 :     2.999737973494048   Change is   -0.000000000008112
 Root      2 :     4.281346710590369   Change is    0.000000000004493
 Root      3 :     4.693813523599952   Change is    0.000000000001821
 Root      4 :     4.728297156527153   Change is    0.000000000007806
 Root      5 :     4.760987289500861   Change is    0.000000000000949
 Root      6 :     4.862101410346237   Change is    0.000000000000406
 Root      7 :     5.015288728715275   Change is   -0.000000000006983
 Root      8 :     5.041819708820666   Change is    0.000000000002805
 Root      9 :     5.200887963707944   Change is   -0.000000004233249
 Root     10 :     5.296479800829699   Change is   -0.000000292653150
 Davidson failed to converge within maximum sub-space dimensions.
  Restart with updated initial guess:
 Iteration     1 Dimension    24 NMult   398 NNew     24
 CISAX will form    24 AO SS matrices at one time.
 NMat=    24 NSing=    24 JSym2X= 0.
 Excitation Energies [eV] at current iteration:
 Root      1 :     2.999737973542198
 Root      2 :     4.281346710633323
 Root      3 :     4.693813523614681
 Root      4 :     4.728297156516252
 Root      5 :     4.760987289524620
 Root      6 :     4.862101410344818
 Root      7 :     5.015288728363466
 Root      8 :     5.041819708534756
 Root      9 :     5.200887962865336
 Root     10 :     5.296479753385937
 Iteration     2 Dimension    44 NMult   422 NNew     20
 CISAX will form    20 AO SS matrices at one time.
 NMat=    20 NSing=    20 JSym2X= 0.
 Root      1 has converged.
 Root      2 has converged.
 Root      3 has converged.
 Root      4 has converged.
 Root      5 has converged.
[...]
    25  H   -0.013161   0.000000  -0.113057  -0.001450   0.533278   0.000651
    26  H    0.000000  -0.013106  -0.004081  -0.088870   0.000725   0.538883
    27  H    0.002805   0.000007   0.189467  -0.004339  -0.240223  -0.010020
    28  H    0.000005   0.002763   0.010630   0.137288  -0.014173  -0.244353
    29  H    0.000121   0.000058  -0.016342  -0.014388   0.032559  -0.015255
    30  H   -0.000008  -0.000002   0.001789  -0.000119  -0.005504   0.003042
    31  H    0.000000   0.000000  -0.000594  -0.000015   0.002085  -0.001214
    32  H    0.000000  -0.000002  -0.000910   0.000334   0.000415   0.003543
    33  C    0.000254   0.000369   0.009541  -0.018476   0.047797  -0.033840
    34  O    0.000000  -0.000008  -0.000929   0.002323   0.000900  -0.008743
    35  O   -0.000033  -0.000008   0.018401   0.019911   0.000202  -0.012922
               7          8          9         10         11         12
     1  O   -0.002757   0.000437  -0.028883   0.001571   0.108369   0.008470
     2  O    0.000373  -0.010740   0.000668  -0.041876   0.010344   0.109573
     3  C    5.316751  -0.653168  -1.870817  -2.612740  -3.507527   0.321563
     4  C   -0.555177   5.352523  -2.212837  -1.285834  -0.314765  -4.732349
     5  C   -2.922987  -0.189020  -2.271495   0.296964   1.964294  -0.309209
     6  C   -0.272201  -2.462174   0.011086  -2.654053  -0.064401   2.558527
     7  C   13.113805  -1.692380   0.168859  -1.958225  -0.905551  -0.775885
     8  C   -1.692380  13.131878  -2.465873   0.580983  -1.190995  -2.052628
     9  C    0.168859  -2.465873  11.248381  -0.311505   1.031318  -0.138499
    10  C   -1.958225   0.580983  -0.311505  11.194664  -0.817123  -0.380560
    11  C   -0.905551  -1.190995   1.031318  -0.817123  11.070191   0.728457
    12  C   -0.775885  -2.052628  -0.138499  -0.380560   0.728457  12.143591
    13  C   -0.149936  -0.055906  -0.165253  -0.009259  -0.652178  -0.067154
    14  C   -0.052442  -0.135896   0.049046   0.188153  -0.042369  -0.639039
    15  O   -0.025758  -0.024023   0.017200   0.029699   0.057993   0.077591
    16  C   -2.405746  -2.927478   2.971560   2.873014  -0.357696  -0.023309
    17  C   -0.427797   0.648389  -0.476486   0.906255  -0.181483  -0.179653
    18  C   -0.131806   0.168721   0.093259  -0.454653  -0.532057  -0.188089
    19  C   -0.234135   0.028420   0.173552  -0.135566   0.228867   0.237625
    20  C    0.060508  -0.030328   0.049033   0.171930  -0.080886  -0.082655
    21  C   -0.061872   0.162007  -0.299410  -0.250273  -0.290334  -0.176889
    22  C    0.072932   0.118100   0.154431   0.549619  -0.595732  -0.639915
    23  H    0.083385  -0.009486   0.015707  -0.045284  -0.102655  -0.004200
    24  H   -0.003284   0.071007  -0.031672   0.026170  -0.016937  -0.088429
    25  H   -0.144580   0.002037   0.077932   0.007216   0.029368  -0.005849
    26  H   -0.000977  -0.074681  -0.003515   0.051841  -0.011519   0.016274
    27  H    0.646972  -0.040796   0.033861  -0.080324  -0.014168  -0.010621
    28  H   -0.016090   0.532746  -0.025504   0.005699   0.006845  -0.033890
    29  H    0.050453  -0.035868   0.014238   0.011745  -0.021080  -0.047359
    30  H   -0.005869  -0.000135   0.004998  -0.005180   0.007320   0.006052
    31  H    0.002278  -0.000022  -0.004064   0.001216  -0.001567  -0.001194
    32  H   -0.005938   0.007049  -0.006985  -0.004178  -0.000620   0.002235
    33  C    0.007825  -0.187288  -0.096402  -0.074457   0.208882   0.142559
    34  O    0.005201   0.025987  -0.007041  -0.002658  -0.005903  -0.004117
    35  O   -0.003408   0.007172  -0.002483   0.020374   0.051688   0.058238
              13         14         15         16         17         18
     1  O    0.436658  -0.000040  -0.003040   0.009867   0.000338  -0.000453
     2  O    0.000003   0.457726  -0.003121   0.006598  -0.001018  -0.000810
     3  C    0.615802   0.012934  -0.423953  -3.057961  -0.586670  -0.024080
     4  C    0.031593   0.249900  -0.407312  -2.995994   0.347119  -0.185465
     5  C    0.153182  -0.013055   0.022647  -0.498625  -0.016834  -0.177356
     6  C   -0.015540  -0.170119   0.000328  -0.700124  -0.604052   0.241296
     7  C   -0.149936  -0.052442  -0.025758  -2.405746  -0.427797  -0.131806
     8  C   -0.055906  -0.135896  -0.024023  -2.927478   0.648389   0.168721
     9  C   -0.165253   0.049046   0.017200   2.971560  -0.476486   0.093259
    10  C   -0.009259   0.188153   0.029699   2.873014   0.906255  -0.454653
    11  C   -0.652178  -0.042369   0.057993  -0.357696  -0.181483  -0.532057
    12  C   -0.067154  -0.639039   0.077591  -0.023309  -0.179653  -0.188089
    13  C    7.135790  -0.012286   0.003679  -0.635740   0.025935  -0.081194
    14  C   -0.012286   7.034539   0.013289  -0.401063   0.071312  -0.014098
    15  O    0.003679   0.013289   8.474689   0.335123  -0.009542  -0.000654
    16  C   -0.635740  -0.401063   0.335123  14.062206   1.079691  -1.412780
    17  C    0.025935   0.071312  -0.009542   1.079691  10.434905  -1.619915
    18  C   -0.081194  -0.014098  -0.000654  -1.412780  -1.619915   9.953193
    19  C   -0.032088  -0.000848  -0.011295  -0.230680  -2.989790  -0.641477
    20  C   -0.001550  -0.011044   0.002338   0.069745   2.077039  -0.922255
    21  C    0.000968   0.000724   0.005089  -1.357123  -3.041366   2.956347
    22  C   -0.017517  -0.030379   0.036560   0.266383   0.809788  -0.751006
    23  H   -0.083843   0.003862  -0.023085  -0.028693  -0.009532   0.004125
    24  H    0.004874  -0.101863  -0.024142  -0.027116   0.003036  -0.001632
    25  H   -0.092944   0.000117   0.000753   0.041930   0.000280  -0.000554
    26  H   -0.000108  -0.102548   0.000692   0.011284  -0.005693   0.004217
    27  H    0.029250  -0.000319  -0.002170  -0.135557   0.017530   0.008931
    28  H    0.000851   0.024558  -0.001718  -0.055949   0.041323  -0.011679
    29  H    0.007540  -0.001853   0.001904  -0.031833   0.031989   0.490042
    30  H   -0.000313   0.000395  -0.000289   0.000024  -0.053530  -0.065741
    31  H    0.000101  -0.000121   0.000024   0.004921   0.038605  -0.010836
    32  H   -0.000204   0.000562  -0.000034  -0.002789   0.008877   0.016784
    33  C    0.005926   0.014069  -0.008949   0.448552  -0.729193  -0.257530
    34  O    0.000267  -0.000482   0.000042  -0.038304   0.028889  -0.000751
    35  O    0.008874   0.004189  -0.005403  -0.107944   0.024834  -0.066268
              19         20         21         22         23         24
     1  O   -0.000270   0.000017  -0.000014  -0.000415  -0.010265   0.000047
     2  O   -0.000156  -0.000001  -0.000101  -0.000426   0.000042  -0.010137
     3  C    0.064194  -0.012167  -0.068008  -0.261989   0.631549   0.004243
     4  C   -0.006165   0.000463  -0.060607  -0.135081  -0.007300   0.599669
     5  C   -0.110847   0.019996   0.085573   0.180161  -0.093199   0.002556
     6  C    0.194471  -0.045717   0.140564  -0.138143   0.002755  -0.084894
     7  C   -0.234135   0.060508  -0.061872   0.072932   0.083385  -0.003284
     8  C    0.028420  -0.030328   0.162007   0.118100  -0.009486   0.071007
     9  C    0.173552   0.049033  -0.299410   0.154431   0.015707  -0.031672
    10  C   -0.135566   0.171930  -0.250273   0.549619  -0.045284   0.026170
    11  C    0.228867  -0.080886  -0.290334  -0.595732  -0.102655  -0.016937
    12  C    0.237625  -0.082655  -0.176889  -0.639915  -0.004200  -0.088429
    13  C   -0.032088  -0.001550   0.000968  -0.017517  -0.083843   0.004874
    14  C   -0.000848  -0.011044   0.000724  -0.030379   0.003862  -0.101863
    15  O   -0.011295   0.002338   0.005089   0.036560  -0.023085  -0.024142
    16  C   -0.230680   0.069745  -1.357123   0.266383  -0.028693  -0.027116
    17  C   -2.989790   2.077039  -3.041366   0.809788  -0.009532   0.003036
    18  C   -0.641477  -0.922255   2.956347  -0.751006   0.004125  -0.001632
    19  C   10.454403  -1.530825  -0.629097   0.646280   0.001044   0.000417
    20  C   -1.530825   8.844523  -1.225008  -0.775929  -0.000144  -0.000203
    21  C   -0.629097  -1.225008  11.845773  -1.634358  -0.000028  -0.000466
    22  C    0.646280  -0.775929  -1.634358  10.068379  -0.001953  -0.003258
    23  H    0.001044  -0.000144  -0.000028  -0.001953   0.464456  -0.002792
    24  H    0.000417  -0.000203  -0.000466  -0.003258  -0.002792   0.466324
    25  H    0.004142   0.000295  -0.000235   0.002958  -0.002671  -0.000023
    26  H   -0.000038   0.002554   0.003166   0.007089  -0.000028  -0.002516
    27  H   -0.034140   0.019387  -0.009421  -0.004730   0.003385  -0.000200
    28  H   -0.010977   0.006303  -0.002019  -0.023823  -0.000156   0.003047
    29  H   -0.235792   0.024346   0.059385   0.019793  -0.000223  -0.000139
    30  H    0.547527  -0.117557  -0.013212   0.025716   0.000012   0.000013
    31  H   -0.109205   0.487139  -0.073615   0.016878  -0.000005  -0.000004
    32  H    0.003977  -0.050847   0.419975  -0.037041  -0.000005  -0.000002
    33  C    0.784576  -0.624577  -0.259672  -1.687148  -0.000282   0.001705
    34  O   -0.007691   0.099820   0.001084  -0.197616   0.000005  -0.000038
    35  O   -0.014269   0.028954  -0.022529  -0.143462  -0.000068   0.000355
              25         26         27         28         29         30
     1  O   -0.013161   0.000000   0.002805   0.000005   0.000121  -0.000008
     2  O    0.000000  -0.013106   0.000007   0.002763   0.000058  -0.000002
     3  C   -0.113057  -0.004081   0.189467   0.010630  -0.016342   0.001789
     4  C   -0.001450  -0.088870  -0.004339   0.137288  -0.014388  -0.000119
     5  C    0.533278   0.000725  -0.240223  -0.014173   0.032559  -0.005504
     6  C    0.000651   0.538883  -0.010020  -0.244353  -0.015255   0.003042
     7  C   -0.144580  -0.000977   0.646972  -0.016090   0.050453  -0.005869
     8  C    0.002037  -0.074681  -0.040796   0.532746  -0.035868  -0.000135
     9  C    0.077932  -0.003515   0.033861  -0.025504   0.014238   0.004998
    10  C    0.007216   0.051841  -0.080324   0.005699   0.011745  -0.005180
    11  C    0.029368  -0.011519  -0.014168   0.006845  -0.021080   0.007320
    12  C   -0.005849   0.016274  -0.010621  -0.033890  -0.047359   0.006052
    13  C   -0.092944  -0.000108   0.029250   0.000851   0.007540  -0.000313
    14  C    0.000117  -0.102548  -0.000319   0.024558  -0.001853   0.000395
    15  O    0.000753   0.000692  -0.002170  -0.001718   0.001904  -0.000289
    16  C    0.041930   0.011284  -0.135557  -0.055949  -0.031833   0.000024
    17  C    0.000280  -0.005693   0.017530   0.041323   0.031989  -0.053530
    18  C   -0.000554   0.004217   0.008931  -0.011679   0.490042  -0.065741
    19  C    0.004142  -0.000038  -0.034140  -0.010977  -0.235792   0.547527
    20  C    0.000295   0.002554   0.019387   0.006303   0.024346  -0.117557
    21  C   -0.000235   0.003166  -0.009421  -0.002019   0.059385  -0.013212
    22  C    0.002958   0.007089  -0.004730  -0.023823   0.019793   0.025716
    23  H   -0.002671  -0.000028   0.003385  -0.000156  -0.000223   0.000012
    24  H   -0.000023  -0.002516  -0.000200   0.003047  -0.000139   0.000013
    25  H    0.469363   0.000002  -0.021826  -0.000163  -0.000543  -0.000015
    26  H    0.000002   0.471349  -0.000201  -0.022632   0.000188  -0.000121
    27  H   -0.021826  -0.000201   0.505131   0.001836   0.004618  -0.000332
    28  H   -0.000163  -0.022632   0.001836   0.511491  -0.000548   0.000692
    29  H   -0.000543   0.000188   0.004618  -0.000548   0.477840  -0.012320
    30  H   -0.000015  -0.000121  -0.000332   0.000692  -0.012320   0.463353
    31  H    0.000038   0.000113  -0.000663  -0.001375   0.001355  -0.010972
    32  H    0.000073   0.000022  -0.000975  -0.000703   0.000039   0.000697
    33  C    0.001111  -0.004091  -0.032225  -0.016639  -0.015303   0.011921
    34  O   -0.000046   0.000728   0.000249  -0.004959   0.000592  -0.000314
    35  O   -0.000415  -0.001724   0.001818   0.014323  -0.000020  -0.000346
              31         32         33         34         35
     1  O    0.000000   0.000000   0.000254   0.000000  -0.000033
     2  O    0.000000  -0.000002   0.000369  -0.000008  -0.000008
     3  C   -0.000594  -0.000910   0.009541  -0.000929   0.018401
     4  C   -0.000015   0.000334  -0.018476   0.002323   0.019911
     5  C    0.002085   0.000415   0.047797   0.000900   0.000202
     6  C   -0.001214   0.003543  -0.033840  -0.008743  -0.012922
     7  C    0.002278  -0.005938   0.007825   0.005201  -0.003408
     8  C   -0.000022   0.007049  -0.187288   0.025987   0.007172
     9  C   -0.004064  -0.006985  -0.096402  -0.007041  -0.002483
    10  C    0.001216  -0.004178  -0.074457  -0.002658   0.020374
    11  C   -0.001567  -0.000620   0.208882  -0.005903   0.051688
    12  C   -0.001194   0.002235   0.142559  -0.004117   0.058238
    13  C    0.000101  -0.000204   0.005926   0.000267   0.008874
    14  C   -0.000121   0.000562   0.014069  -0.000482   0.004189
    15  O    0.000024  -0.000034  -0.008949   0.000042  -0.005403
    16  C    0.004921  -0.002789   0.448552  -0.038304  -0.107944
    17  C    0.038605   0.008877  -0.729193   0.028889   0.024834
    18  C   -0.010836   0.016784  -0.257530  -0.000751  -0.066268
    19  C   -0.109205   0.003977   0.784576  -0.007691  -0.014269
    20  C    0.487139  -0.050847  -0.624577   0.099820   0.028954
    21  C   -0.073615   0.419975  -0.259672   0.001084  -0.022529
    22  C    0.016878  -0.037041  -1.687148  -0.197616  -0.143462
    23  H   -0.000005  -0.000005  -0.000282   0.000005  -0.000068
    24  H   -0.000004  -0.000002   0.001705  -0.000038   0.000355
    25  H    0.000038   0.000073   0.001111  -0.000046  -0.000415
    26  H    0.000113   0.000022  -0.004091   0.000728  -0.001724
    27  H   -0.000663  -0.000975  -0.032225   0.000249   0.001818
    28  H   -0.001375  -0.000703  -0.016639  -0.004959   0.014323
    29  H    0.001355   0.000039  -0.015303   0.000592  -0.000020
    30  H   -0.010972   0.000697   0.011921  -0.000314  -0.000346
    31  H    0.465457  -0.007355  -0.004828   0.000862   0.000233
    32  H   -0.007355   0.439480  -0.032405   0.002777   0.000103
    33  C   -0.004828  -0.032405   7.868403   0.310784   0.255539
    34  O    0.000862   0.002777   0.310784   8.497163  -0.158015
    35  O    0.000233   0.000103   0.255539  -0.158015   8.503462
 Mulliken charges:
               1
     1  O   -0.526337
     2  O   -0.524639
     3  C   -0.500777
     4  C   -0.395439
     5  C   -0.057413
     6  C    0.051846
     7  C   -0.774543
     8  C   -0.598571
     9  C    0.303595
    10  C    0.206636
    11  C    0.203608
    12  C    0.170737
    13  C   -0.388281
    14  C   -0.395512
    15  O   -0.105154
    16  C    1.251606
    17  C    0.336419
    18  C   -0.383773
    19  C   -0.404145
    20  C   -0.452697
    21  C   -0.204999
    22  C    0.104853
    23  H    0.215566
    24  H    0.216285
    25  H    0.225988
    26  H    0.227322
    27  H    0.178001
    28  H    0.186953
    29  H    0.220061
    30  H    0.218326
    31  H    0.206342
    32  H    0.244050
    33  C   -0.036506
    34  O   -0.540056
    35  O   -0.479352
 Sum of Mulliken charges =  -2.00000
 Mulliken charges with hydrogens summed into heavy atoms:
               1
     1  O   -0.526337
     2  O   -0.524639
     3  C   -0.285210
     4  C   -0.179155
     5  C    0.168575
     6  C    0.279168
     7  C   -0.596543
     8  C   -0.411618
     9  C    0.303595
    10  C    0.206636
    11  C    0.203608
    12  C    0.170737
    13  C   -0.388281
    14  C   -0.395512
    15  O   -0.105154
    16  C    1.251606
    17  C    0.336419
    18  C   -0.163712
    19  C   -0.185819
    20  C   -0.246355
    21  C    0.039052
    22  C    0.104853
    33  C   -0.036506
    34  O   -0.540056
    35  O   -0.479352
 Electronic spatial extent (au):  <R**2>=           7920.0796
 Charge=             -2.0000 electrons
 Dipole moment (field-independent basis, Debye):
    X=             -8.5243    Y=            -11.9191    Z=             -2.4403  Tot=             14.8554
 Quadrupole moment (field-independent basis, Debye-Ang):
   XX=           -203.0444   YY=           -191.3570   ZZ=           -266.1657
   XY=             31.7030   XZ=              8.9800   YZ=            -12.7477
 Traceless Quadrupole moment (field-independent basis, Debye-Ang):
   XX=             17.1446   YY=             28.8320   ZZ=            -45.9766
   XY=             31.7030   XZ=              8.9800   YZ=            -12.7477
 Octapole moment (field-independent basis, Debye-Ang**2):
  XXX=            -92.5708  YYY=           -126.3051  ZZZ=            -12.3391  XYY=             68.2187
  XXY=            -48.7004  XXZ=            -20.3007  XZZ=           -333.6326  YZZ=             42.8130
  YYZ=            -32.2248  XYZ=              3.4216
 Hexadecapole moment (field-independent basis, Debye-Ang**3):
 XXXX=          -5127.0128 YYYY=          -1679.8055 ZZZZ=          -7717.6044 XXXY=            494.4857
 XXXZ=            165.5231 YYYX=            542.8859 YYYZ=           -305.8780 ZZZX=            118.0973
 ZZZY=           -358.1012 XXYY=          -1226.6398 XXZZ=          -2711.3612 YYZZ=          -1131.8058
 XXYZ=           -177.4943 YYXZ=            129.4878 ZZXY=            236.3725
 N-N= 2.030908845192D+03 E-N=-6.774677828591D+03  KE= 1.139443591568D+03
 No NMR shielding tensors so no spin-rotation constants.
 Leave Link  601 at Mon Feb 17 10:26:30 2020, MaxMem=  6710886400 cpu:        10.9
 (Enter /opt/sys/apps/gaussian09/D.01/g09/l9999.exe)

 Test job not archived.
 1\1\GINC-S91P32\SP\RCAM-B3LYP TD-FC\6-311++G(d,p)\C20H10O5(2-)\SALVATO
 RE\17-Feb-2020\0\\#p CAM-B3LYP/6-311++G** nosym density=current geom=a
 llcheck EmpiricalDispersion=GD3 SCRF=(CPCM, solvent=ethanol) IOP(10/74
 =10) TD=(NSTATES=10,ROOT=1,NONEQ) iop(3/119=0810000000) iop(3/120=0810
 000000)\\dianion\\-2,1\O,0,2.811879998,-0.6112145868,-4.7101483976\O,0
 ,2.734586409,-0.1526160479,4.6907335912\C,0,2.7297345562,-0.4871021576
 ,-2.3417454282\C,0,2.690410477,-0.2548571024,2.3204393172\C,0,0.672448
 6028,-0.4547179182,-3.6771071871\C,0,0.6110547832,-0.1254484797,3.6133
 16411\C,0,-0.0705082963,-0.3822368889,-2.5371130894\C,0,-0.1137346132,
 -0.1702625605,2.4601400792\C,0,0.5318241048,-0.3623927496,-1.242428988
 2\C,0,0.5100602205,-0.2471058559,1.1788070511\C,0,1.9589308856,-0.4098
 154264,-1.2098724242\C,0,1.9375524078,-0.2917319063,1.1743129871\C,0,2
 .1303892966,-0.5207404751,-3.6512652892\C,0,2.0699496969,-0.1663074562
 ,3.6170698521\O,0,2.6214601992,-0.3736029397,-0.0109653998\C,0,-0.1851
 98215,-0.2787770855,-0.0400210932\C,0,-1.6759967375,-0.3370558203,-0.0
 51898804\C,0,-2.2409750894,-1.6002093435,-0.2814658429\C,0,-3.62002755
 92,-1.7784652426,-0.2780089223\C,0,-4.4573426089,-0.6861046,-0.0427858
 772\C,0,-3.9007115282,0.5657863792,0.1912322154\C,0,-2.5119255962,0.76
 42908365,0.1858111829\H,0,3.8097194598,-0.5289664834,-2.2554495992\H,0
 ,3.7719476015,-0.2990415289,2.2565048008\H,0,0.1952488643,-0.467052735
 ,-4.651798851\H,0,0.1170479397,-0.061987421,4.5775490565\H,0,-1.152624
 773,-0.3402574223,-2.5951703072\H,0,-1.1969794507,-0.1446911335,2.4993
 111852\H,0,-1.5879213995,-2.448367792,-0.4570816069\H,0,-4.0377268016,
 -2.7620543964,-0.4605541349\H,0,-5.5342438935,-0.8158361641,-0.0441353
 824\H,0,-4.5277634821,1.4282892832,0.3798451439\C,0,-1.9494556549,2.19
 92316956,0.4077043316\O,0,-2.726446167,3.0263435569,0.9434087633\O,0,-
 0.7714703839,2.4095305812,0.0392034126\\Version=ES64L-G09RevD.01\HF=-1
 143.5425603\RMSD=7.599e-09\Dipole=-3.4000432,-4.7381864,-0.8347674\Qua
 drupole=12.7466047,21.4358933,-34.182498,23.5703702,6.6763902,-9.47759
 51\PG=C01 [X(C20H10O5)]\\@


 In the race for quality, there is no finish line.
                               -- David T. Kearns
 Job cpu time:       0 days 22 hours 55 minutes 16.8 seconds.
 File lengths (MBytes):  RWF=   1119 Int=      0 D2E=      0 Chk=    268 Scr=      1
 Normal termination of Gaussian 09 at Mon Feb 17 10:26:31 2020.
