 Entering Gaussian System, Link 0=g09
 Initial command:
 /opt/sys/apps/gaussian09/D.01/g09/l1.exe "/tmp/Gau-18494.inp" -scrdir="/tmp/"
 Entering Link 1 = /opt/sys/apps/gaussian09/D.01/g09/l1.exe PID=     18495.
  
 Copyright (c) 1988,1990,1992,1993,1995,1998,2003,2009,2013,
            Gaussian, Inc.  All Rights Reserved.
  
 This is part of the Gaussian(R) 09 program.  It is based on
 the Gaussian(R) 03 system (copyright 2003, Gaussian, Inc.),
 the Gaussian(R) 98 system (copyright 1998, Gaussian, Inc.),
 the Gaussian(R) 94 system (copyright 1995, Gaussian, Inc.),
 the Gaussian 92(TM) system (copyright 1992, Gaussian, Inc.),
 the Gaussian 90(TM) system (copyright 1990, Gaussian, Inc.),
 the Gaussian 88(TM) system (copyright 1988, Gaussian, Inc.),
 the Gaussian 86(TM) system (copyright 1986, Carnegie Mellon
 University), and the Gaussian 82(TM) system (copyright 1983,
 Carnegie Mellon University). Gaussian is a federally registered
 trademark of Gaussian, Inc.
  
 This software contains proprietary and confidential information,
 including trade secrets, belonging to Gaussian, Inc.
  
 This software is provided under written license and may be
 used, copied, transmitted, or stored only in accord with that
 written license.
  
 The following legend is applicable only to US Government
 contracts under FAR:
  
                    RESTRICTED RIGHTS LEGEND
  
 Use, reproduction and disclosure by the US Government is
 subject to restrictions as set forth in subparagraphs (a)
 and (c) of the Commercial Computer Software - Restricted
 Rights clause in FAR 52.227-19.
  
 Gaussian, Inc.
 340 Quinnipiac St., Bldg. 40, Wallingford CT 06492
  
  
 ---------------------------------------------------------------
 Warning -- This program may not be used in any manner that
 competes with the business of Gaussian, Inc. or will provide
 assistance to any competitor of Gaussian, Inc.  The licensee
 of this program is prohibited from giving any competitor of
 Gaussian, Inc. access to this program.  By using this program,
 the user acknowledges that Gaussian, Inc. is engaged in the
 business of creating and licensing software in the field of
 computational chemistry and represents and warrants to the
 licensee that it is not a competitor of Gaussian, Inc. and that
 it will not use this program in any manner prohibited above.
 ---------------------------------------------------------------
  

 Cite this work as:
 Gaussian 09, Revision D.01,
 M. J. Frisch, G. W. Trucks, H. B. Schlegel, G. E. Scuseria, 
 M. A. Robb, J. R. Cheeseman, G. Scalmani, V. Barone, B. Mennucci, 
 G. A. Petersson, H. Nakatsuji, M. Caricato, X. Li, H. P. Hratchian, 
 A. F. Izmaylov, J. Bloino, G. Zheng, J. L. Sonnenberg, M. Hada, 
 M. Ehara, K. Toyota, R. Fukuda, J. Hasegawa, M. Ishida, T. Nakajima, 
 Y. Honda, O. Kitao, H. Nakai, T. Vreven, J. A. Montgomery, Jr., 
 J. E. Peralta, F. Ogliaro, M. Bearpark, J. J. Heyd, E. Brothers, 
 K. N. Kudin, V. N. Staroverov, T. Keith, R. Kobayashi, J. Normand, 
 K. Raghavachari, A. Rendell, J. C. Burant, S. S. Iyengar, J. Tomasi, 
 M. Cossi, N. Rega, J. M. Millam, M. Klene, J. E. Knox, J. B. Cross, 
 V. Bakken, C. Adamo, J. Jaramillo, R. Gomperts, R. E. Stratmann, 
 O. Yazyev, A. J. Austin, R. Cammi, C. Pomelli, J. W. Ochterski, 
 R. L. Martin, K. Morokuma, V. G. Zakrzewski, G. A. Voth, 
 P. Salvador, J. J. Dannenberg, S. Dapprich, A. D. Daniels, 
 O. Farkas, J. B. Foresman, J. V. Ortiz, J. Cioslowski, 
 and D. J. Fox, Gaussian, Inc., Wallingford CT, 2013.
 
 ******************************************
 Gaussian 09:  ES64L-G09RevD.01 24-Apr-2013
                17-Feb-2020 
 ******************************************
 %NProcShared=24
 Will use up to   24 processors via shared memory.
 %mem=50GB
 %oldChk=checkpointCPCM_wat.chk
 %Chk=checkpointCPCMES_wat.chk
 Copying data from "checkpointCPCM_wat.chk" to current chk file "checkpointCPCMES_wat.chk".
 ----------------------------------------------------------------------
 #p CAM-B3LYP/6-311++G** nosym density=current geom=allcheck EmpiricalD
 ispersion=GD3 SCRF=(CPCM, solvent=water) IOP(10/74=10) TD=(NSTATES=10,
 ROOT=1,NONEQ) iop(3/119=0810000000) iop(3/120=0810000000)
 ----------------------------------------------------------------------
 1/29=7,30=1,38=1/1;
 2/12=2,15=1,40=1/2;
 3/5=4,6=6,7=1111,11=9,14=-4,16=1,25=1,30=1,70=2101,71=1,72=1,74=-40,119=810000000,120=810000000,124=31/1,2,8,3;
 4//1;
 5/5=2,38=5,53=1/2;
 8/6=1,10=2,107=1,108=10/1;
 9/8=1,15=1,41=10,42=1,70=2,73=1/14;
 10/5=4,13=10,31=1,74=10/2;
 6/7=2,8=2,9=2,10=2,22=-1/1;
 99/5=1,9=1/99;
 Leave Link    1 at Mon Feb 17 09:27:58 2020, MaxMem=  6710886400 cpu:        23.6
 (Enter /opt/sys/apps/gaussian09/D.01/g09/l101.exe)
 Structure from the checkpoint file:  "checkpointCPCMES_wat.chk"
 -------
 dianion
 -------
 Charge = -2 Multiplicity = 1
 Redundant internal coordinates found in file.
 O,0,2.7743145775,-0.3977127539,-4.7111833007
 O,0,2.7750242857,-0.3631230763,4.7054263637
 C,0,2.7121965878,-0.3724361637,-2.3401940156
 C,0,2.7125714277,-0.3549500181,2.3343372951
 C,0,0.644551554,-0.3356381542,-3.6545562696
 C,0,0.6450864662,-0.3094547812,3.6487017646
 C,0,-0.090631659,-0.3083566066,-2.5048822864
 C,0,-0.0902656211,-0.2905996297,2.4989746535
 C,0,0.5239265848,-0.3134028957,-1.2167452228
 C,0,0.524152621,-0.3040294577,1.2107973654
 C,0,1.9500648197,-0.3436549179,-1.1972376326
 C,0,1.9502957151,-0.3344905314,1.1913078539
 C,0,2.0995685362,-0.3703847781,-3.6407161213
 C,0,2.1001147686,-0.3435976882,3.6349001815
 O,0,2.6223881618,-0.3442346629,-0.0030009749
 C,0,-0.1822179457,-0.2619554319,-0.003112786
 C,0,-1.6747246279,-0.3296890246,-0.0021195334
 C,0,-2.2368198462,-1.6138303395,-0.0100607076
 C,0,-3.6169021132,-1.7945558573,-0.0070353473
 C,0,-4.4554296685,-0.6802390467,0.004834707
 C,0,-3.9013400333,0.5960467203,0.0134557078
 C,0,-2.5147775489,0.7983438921,0.0096316158
 H,0,3.7930832153,-0.3968033342,-2.2664010297
 H,0,3.7934464957,-0.3799712384,2.2605957847
 H,0,0.1578692956,-0.3316099067,-4.6240816189
 H,0,0.1585163816,-0.2992258524,4.6182370298
 H,0,-1.1731616078,-0.2801691578,-2.5532089175
 H,0,-1.1728073351,-0.2630113004,2.547282021
 H,0,-1.5786591732,-2.4758438977,-0.0183254697
 H,0,-4.0310735778,-2.7965091064,-0.0136121315
 H,0,-5.5325152426,-0.8061559528,0.0074001752
 H,0,-4.537568835,1.4719963787,0.0234605325
 C,0,-1.9683400165,2.2350739822,0.0164455926
 O,0,-2.8184849798,3.1643090272,0.0469653142
 O,0,-0.7182584096,2.364318175,-0.0099078371
 Recover connectivity data from disk.
 NAtoms=     35 NQM=       35 NQMF=       0 NMMI=      0 NMMIF=      0
                NMic=       0 NMicF=      0.
                    Isotopes and Nuclear Properties:
 (Nuclear quadrupole moments (NQMom) in fm**2, nuclear magnetic moments (NMagM)
  in nuclear magnetons)

  Atom         1           2           3           4           5           6           7           8           9          10
 IAtWgt=          16          16          12          12          12          12          12          12          12          12
 AtmWgt=  15.9949146  15.9949146  12.0000000  12.0000000  12.0000000  12.0000000  12.0000000  12.0000000  12.0000000  12.0000000
 NucSpn=           0           0           0           0           0           0           0           0           0           0
 AtZEff=  -5.6000000  -5.6000000  -3.6000000  -3.6000000  -3.6000000  -3.6000000  -3.6000000  -3.6000000  -3.6000000  -3.6000000
 NQMom=    0.0000000   0.0000000   0.0000000   0.0000000   0.0000000   0.0000000   0.0000000   0.0000000   0.0000000   0.0000000
 NMagM=    0.0000000   0.0000000   0.0000000   0.0000000   0.0000000   0.0000000   0.0000000   0.0000000   0.0000000   0.0000000
 AtZNuc=   8.0000000   8.0000000   6.0000000   6.0000000   6.0000000   6.0000000   6.0000000   6.0000000   6.0000000   6.0000000

  Atom        11          12          13          14          15          16          17          18          19          20
 IAtWgt=          12          12          12          12          16          12          12          12          12          12
 AtmWgt=  12.0000000  12.0000000  12.0000000  12.0000000  15.9949146  12.0000000  12.0000000  12.0000000  12.0000000  12.0000000
 NucSpn=           0           0           0           0           0           0           0           0           0           0
 AtZEff=  -3.6000000  -3.6000000  -3.6000000  -3.6000000  -5.6000000  -3.6000000  -3.6000000  -3.6000000  -3.6000000  -3.6000000
 NQMom=    0.0000000   0.0000000   0.0000000   0.0000000   0.0000000   0.0000000   0.0000000   0.0000000   0.0000000   0.0000000
 NMagM=    0.0000000   0.0000000   0.0000000   0.0000000   0.0000000   0.0000000   0.0000000   0.0000000   0.0000000   0.0000000
 AtZNuc=   6.0000000   6.0000000   6.0000000   6.0000000   8.0000000   6.0000000   6.0000000   6.0000000   6.0000000   6.0000000

  Atom        21          22          23          24          25          26          27          28          29          30
 IAtWgt=          12          12           1           1           1           1           1           1           1           1
 AtmWgt=  12.0000000  12.0000000   1.0078250   1.0078250   1.0078250   1.0078250   1.0078250   1.0078250   1.0078250   1.0078250
 NucSpn=           0           0           1           1           1           1           1           1           1           1
 AtZEff=  -3.6000000  -3.6000000  -1.0000000  -1.0000000  -1.0000000  -1.0000000  -1.0000000  -1.0000000  -1.0000000  -1.0000000
 NQMom=    0.0000000   0.0000000   0.0000000   0.0000000   0.0000000   0.0000000   0.0000000   0.0000000   0.0000000   0.0000000
 NMagM=    0.0000000   0.0000000   2.7928460   2.7928460   2.7928460   2.7928460   2.7928460   2.7928460   2.7928460   2.7928460
 AtZNuc=   6.0000000   6.0000000   1.0000000   1.0000000   1.0000000   1.0000000   1.0000000   1.0000000   1.0000000   1.0000000

  Atom        31          32          33          34          35
 IAtWgt=           1           1          12          16          16
 AtmWgt=   1.0078250   1.0078250  12.0000000  15.9949146  15.9949146
 NucSpn=           1           1           0           0           0
 AtZEff=  -1.0000000  -1.0000000  -3.6000000  -5.6000000  -5.6000000
 NQMom=    0.0000000   0.0000000   0.0000000   0.0000000   0.0000000
 NMagM=    2.7928460   2.7928460   0.0000000   0.0000000   0.0000000
 AtZNuc=   1.0000000   1.0000000   6.0000000   8.0000000   8.0000000
 Leave Link  101 at Mon Feb 17 09:27:58 2020, MaxMem=  6710886400 cpu:         6.9
 (Enter /opt/sys/apps/gaussian09/D.01/g09/l202.exe)
                          Input orientation:                          
 ---------------------------------------------------------------------
 Center     Atomic      Atomic             Coordinates (Angstroms)
 Number     Number       Type             X           Y           Z
 ---------------------------------------------------------------------
      1          8           0        2.774315   -0.397713   -4.711183
      2          8           0        2.775024   -0.363123    4.705426
      3          6           0        2.712197   -0.372436   -2.340194
      4          6           0        2.712571   -0.354950    2.334337
      5          6           0        0.644552   -0.335638   -3.654556
      6          6           0        0.645086   -0.309455    3.648702
      7          6           0       -0.090632   -0.308357   -2.504882
      8          6           0       -0.090266   -0.290600    2.498975
      9          6           0        0.523927   -0.313403   -1.216745
     10          6           0        0.524153   -0.304029    1.210797
     11          6           0        1.950065   -0.343655   -1.197238
     12          6           0        1.950296   -0.334491    1.191308
     13          6           0        2.099569   -0.370385   -3.640716
     14          6           0        2.100115   -0.343598    3.634900
     15          8           0        2.622388   -0.344235   -0.003001
     16          6           0       -0.182218   -0.261955   -0.003113
     17          6           0       -1.674725   -0.329689   -0.002120
     18          6           0       -2.236820   -1.613830   -0.010061
     19          6           0       -3.616902   -1.794556   -0.007035
     20          6           0       -4.455430   -0.680239    0.004835
     21          6           0       -3.901340    0.596047    0.013456
     22          6           0       -2.514778    0.798344    0.009632
     23          1           0        3.793083   -0.396803   -2.266401
     24          1           0        3.793446   -0.379971    2.260596
     25          1           0        0.157869   -0.331610   -4.624082
     26          1           0        0.158516   -0.299226    4.618237
     27          1           0       -1.173162   -0.280169   -2.553209
     28          1           0       -1.172807   -0.263011    2.547282
     29          1           0       -1.578659   -2.475844   -0.018325
     30          1           0       -4.031074   -2.796509   -0.013612
     31          1           0       -5.532515   -0.806156    0.007400
     32          1           0       -4.537569    1.471996    0.023461
     33          6           0       -1.968340    2.235074    0.016446
     34          8           0       -2.818485    3.164309    0.046965
     35          8           0       -0.718258    2.364318   -0.009908
 ---------------------------------------------------------------------
                    Distance matrix (angstroms):
                    1          2          3          4          5
     1  O    0.000000
     2  O    9.416673   0.000000
     3  C    2.371938   7.045907   0.000000
     4  C    7.045921   2.371925   4.674564   0.000000
     5  C    2.378278   8.627223   2.450318   6.335923   0.000000
     6  C    8.627229   2.378273   6.335912   2.450330   7.303305
     7  C    3.617135   7.759094   2.808394   5.592688   1.364914
     8  C    7.759102   3.617122   5.592678   2.808406   6.197413
     9  C    4.157217   6.335774   2.460518   4.171580   2.440895
    10  C    6.335760   4.157204   4.171541   2.460510   4.866946
    11  C    3.609726   5.960065   1.374053   3.612972   2.782597
    12  C    5.960068   3.609713   3.612954   1.374045   5.018702
    13  C    1.265673   8.373433   1.437594   6.006436   1.455498
    14  C    8.373445   1.265666   6.006432   1.437601   7.433364
    15  O    4.710936   4.710939   2.339088   2.339102   4.152802
    16  C    5.561065   5.561102   3.721799   3.721844   3.744598
    17  C    6.478724   6.477837   4.971267   4.970718   4.326589
    18  C    6.977891   6.994188   5.609220   5.619382   4.818550
    19  C    8.057781   8.069264   6.893732   6.900487   5.795933
    20  C    8.636541   8.629924   7.547766   7.544046   6.286470
    21  C    8.238576   8.216352   7.086360   7.073522   5.915021
    22  C    7.189655   7.168089   5.849245   5.836054   4.969260
    23  H    2.648556   7.045847   1.083677   4.726103   3.441507
    24  H    7.045896   2.648521   4.726143   1.083677   6.701233
    25  H    2.618729   9.689696   3.426718   7.412600   1.084830
    26  H    9.689695   2.618740   7.412584   3.426733   8.287139
    27  H    4.500360   8.263343   3.892287   6.244407   2.126058
    28  H    8.263367   4.500332   6.244410   3.892296   6.463038
    29  H    6.729779   6.762542   5.312894   5.333655   4.769205
    30  H    8.610151   8.632130   7.533977   7.546577   6.416684
    31  H    9.562180   9.554211   8.583390   8.579025   7.196351
    32  H    8.909338   8.874823   7.845247   7.825754   6.606794
    33  C    7.195472   7.157980   5.853228   5.830247   5.187679
    34  O    8.161335   8.088967   6.985380   6.943331   6.159831
    35  O    6.475251   6.471193   4.968710   4.965934   4.736082
                    6          7          8          9         10
     6  C    0.000000
     7  C    6.197409   0.000000
     8  C    1.364907   5.003888   0.000000
     9  C    4.866957   1.427237   3.766208   0.000000
    10  C    2.440908   3.766199   1.427267   2.427561   0.000000
    11  C    5.018692   2.423968   4.222292   1.426592   2.798826
    12  C    2.782622   4.222309   2.424007   2.798874   1.426602
    13  C    7.433360   2.467984   6.519014   2.891631   5.101325
    14  C    1.455494   6.519014   2.467975   5.101347   2.891625
    15  O    4.152814   3.690687   3.690698   2.424390   2.424359
    16  C    3.744655   2.503875   2.503940   1.405059   1.405101
    17  C    4.325555   2.962031   2.960998   2.511901   2.511352
    18  C    4.836664   3.540412   3.557231   3.281603   3.290751
    19  C    5.808140   4.569750   4.580299   4.561105   4.566522
    20  C    6.279372   5.048607   5.042540   5.140118   5.137326
    21  C    5.891090   4.656337   4.635540   4.682251   4.672125
    22  C    4.945178   3.663884   3.641550   3.460304   3.448641
    23  H    6.701191   3.892035   6.148210   3.434548   4.773408
    24  H    3.441509   6.148250   3.892047   4.773478   3.434549
    25  H    8.287148   2.133846   7.127495   3.426992   5.846429
    26  H    1.084829   7.127481   2.133832   5.846430   3.427004
    27  H    6.463016   1.083975   5.166946   2.160405   4.129066
    28  H    2.126034   5.166965   1.083970   4.129085   2.160451
    29  H    4.804724   3.618728   3.650672   3.245493   3.263332
    30  H    6.439290   5.284355   5.303079   5.325540   5.334953
    31  H    7.188084   6.014438   6.007647   6.198534   6.195444
    32  H    6.570834   5.416403   5.386411   5.508584   5.494093
    33  C    5.147612   4.043751   4.008633   3.771855   3.753138
    34  O    6.085710   5.100247   5.039040   4.986297   4.955512
    35  O    4.732145   3.709717   3.706407   3.188992   3.186501
                   11         12         13         14         15
    11  C    0.000000
    12  C    2.388563   0.000000
    13  C    2.448194   4.834462   0.000000
    14  C    4.834467   2.448198   7.275666   0.000000
    15  O    1.370482   1.370466   3.675186   3.675200   0.000000
    16  C    2.445248   2.445305   4.295400   4.295445   2.805813
    17  C    3.816753   3.816420   5.242741   5.241900   4.297137
    18  C    4.533513   4.540037   5.790689   5.805879   5.022333
    19  C    5.874761   5.878904   6.921700   6.932046   6.405637
    20  C    6.525996   6.523847   7.506934   7.501058   7.085793
    21  C    6.048781   6.041099   7.092099   7.072146   6.591163
    22  C    4.763981   4.755686   5.998596   5.978615   5.262710
    23  H    2.131350   3.918609   2.181154   6.139571   2.548778
    24  H    3.918672   2.131349   6.139609   2.181148   2.548828
    25  H    3.867217   6.085356   2.176857   8.484294   5.237213
    26  H    6.085340   3.867242   8.484283   2.176861   5.237225
    27  H    3.405471   4.876509   3.449866   7.000790   4.573168
    28  H    4.876501   3.405517   7.000807   3.449844   4.573188
    29  H    4.288118   4.301410   5.575305   5.605882   4.710923
    30  H    6.572022   6.579525   7.525074   7.544527   7.091002
    31  H    7.593027   7.590558   8.470381   8.463436   8.167982
    32  H    6.846611   6.835177   7.802061   7.771597   7.386771
    33  C    4.845283   4.831011   6.058971   6.024540   5.265738
    34  O    6.049208   6.024316   7.090861   7.026472   6.474216
    35  O    3.982815   3.980913   5.348039   5.344218   4.300724
                   16         17         18         19         20
    16  C    0.000000
    17  C    1.494043   0.000000
    18  C    2.459472   1.401796   0.000000
    19  C    3.761108   2.432676   1.391869   0.000000
    20  C    4.293642   2.802723   2.407082   1.394622   0.000000
    21  C    3.816846   2.411441   2.766720   2.407552   1.391400
    22  C    2.562271   1.406515   2.428216   2.817461   2.439746
    23  H    4.576426   5.918479   6.552248   7.871869   8.560188
    24  H    4.576485   5.918049   6.560671   7.877593   8.557019
    25  H    4.633990   4.972015   5.354233   6.140540   6.544535
    26  H    4.634044   4.970855   5.374659   6.154912   6.535836
    27  H    2.735926   2.600399   3.062291   3.840343   4.180541
    28  H    2.736016   2.599195   3.081694   3.852761   4.172976
    29  H    2.617553   2.148365   1.084579   2.149120   3.391245
    30  H    4.608445   3.411409   2.148974   1.084201   2.158476
    31  H    5.377913   3.887115   3.393266   2.155624   1.084424
    32  H    4.687897   3.382691   3.849272   3.393954   2.153883
    33  C    3.070142   2.581582   3.858348   4.353875   3.832075
    34  O    4.323390   3.676768   4.813751   5.023020   4.178745
    35  O    2.680429   2.858770   4.258133   5.069357   4.820373
                   21         22         23         24         25
    21  C    0.000000
    22  C    1.401247   0.000000
    23  H    8.086263   6.811594   0.000000
    24  H    8.075394   6.800659   4.527028   0.000000
    25  H    6.232534   5.467279   4.333323   7.785791   0.000000
    26  H    6.203866   5.439706   7.785746   4.333325   9.242375
    27  H    3.846879   3.087276   4.975887   6.917360   2.462276
    28  H    3.821406   3.060560   6.917334   4.975896   7.294098
    29  H    3.851281   3.405496   6.183193   6.200458   5.369009
    30  H    3.395143   3.901623   8.488290   8.499105   6.699209
    31  H    2.151033   3.417772   9.607525   9.603754   7.352299
    32  H    1.082670   2.132061   8.839437   8.822719   6.848342
    33  C    2.534346   1.537151   6.732916   6.713632   5.713416
    34  O    2.787413   2.385670   7.857864   7.821747   6.549719
    35  O    3.641337   2.383304   5.750457   5.748199   5.415370
                   26         27         28         29         30
    26  H    0.000000
    27  H    7.294064   0.000000
    28  H    2.462233   5.100520   0.000000
    29  H    5.408619   3.378025   3.412285   0.000000
    30  H    6.726300   4.577027   4.598530   2.473294   0.000000
    31  H    7.341978   5.083045   5.074747   4.292027   2.493246
    32  H    6.804588   4.585689   4.549895   4.933795   4.298610
    33  C    5.667687   3.682646   3.643959   4.727135   5.438070
    34  O    6.461821   4.618704   4.550425   5.775184   6.083206
    35  O    5.411370   3.697111   3.694414   4.916048   6.132609
                   31         32         33         34         35
    31  H    0.000000
    32  H    2.485992   0.000000
    33  C    4.685350   2.680163   0.000000
    34  O    4.809586   2.412410   1.259824   0.000000
    35  O    5.764484   3.922306   1.257021   2.248148   0.000000
 Symmetry turned off by external request.
 Stoichiometry    C20H10O5(2-)
 Framework group  C1[X(C20H10O5)]
 Deg. of freedom    99
 Full point group                 C1      NOp   1
 Rotational constants (GHZ):      0.2329436      0.2278457      0.1413256
 Leave Link  202 at Mon Feb 17 09:27:58 2020, MaxMem=  6710886400 cpu:         0.1
 (Enter /opt/sys/apps/gaussian09/D.01/g09/l301.exe)
 Standard basis: 6-311++G(d,p) (5D, 7F)
 Ernie: Thresh=  0.10000D-02 Tol=  0.10000D-05 Strict=F.
   620 basis functions,   990 primitive gaussians,   645 cartesian basis functions
    86 alpha electrons       86 beta electrons
       nuclear repulsion energy      2029.9147958045 Hartrees.
 IExCor=20419 DFT=T Ex+Corr=CAM-B3LYP ExCW=0 ScaHFX=  1.000000
 ScaDFX=  1.000000  1.000000  1.000000  0.810000 ScalE2=  1.000000  1.000000
 IRadAn=      0 IRanWt=     -1 IRanGd=            0 ICorTp=0 IEmpDi=131
  HFx wShort=  0.000000 wLong=  0.330000 cFull=  0.190000 cShort=  0.000000 cLong=  0.810000
  DFx wShort=  0.000000 wLong=  0.330000 cFull=  0.190000 cShort=  0.000000 cLong=  0.810000
 NAtoms=   35 NActive=   35 NUniq=   35 SFac= 1.00D+00 NAtFMM=   60 NAOKFM=F Big=F
 Integral buffers will be    131072 words long.
 Raffenetti 1 integral format.
 Two-electron integral symmetry is turned off.
 R6Disp:  Grimme-D3 Dispersion energy=       -0.0265091372 Hartrees.
 Nuclear repulsion after empirical dispersion term =     2029.8882866673 Hartrees.
 ------------------------------------------------------------------------------
 Polarizable Continuum Model (PCM)
 =================================
 Model                : C-PCM.
 Atomic radii         : UFF (Universal Force Field).
 Polarization charges : Total charges.
 Charge compensation  : None.
 Solution method      : On-the-fly selection.
 Cavity type          : Scaled VdW (van der Waals Surface) (Alpha=1.100).
 Cavity algorithm     : GePol (No added spheres)
                        Default sphere list used, NSphG=   35.
                        Lebedev-Laikov grids with approx.  5.0 points / Ang**2.
                        Smoothing algorithm: Karplus/York (Gamma=1.0000).
                        Polarization charges: spherical gaussians, with
                                              point-specific exponents (IZeta= 3).
                        Self-potential: point-specific (ISelfS= 7).
                        Self-field    : sphere-specific E.n sum rule (ISelfD= 2).
 1st derivatives      : Analytical E(r).r(x)/FMM algorithm (CHGder, D1EAlg=3).
                        Cavity 1st derivative terms included.
 Solvent              : Water, Eps=  78.355300 Eps(inf)=   1.777849
 ------------------------------------------------------------------------------
 GePol: Number of generator spheres                  =      35
 GePol: Total number of spheres                      =      35
 GePol: Number of exposed spheres                    =      35 (100.00%)
 GePol: Number of points                             =    2899
 GePol: Average weight of points                     =       0.13
 GePol: Minimum weight of points                     =   0.16D-06
 GePol: Maximum weight of points                     =    0.20577
 GePol: Number of points with low weight             =     167
 GePol: Fraction of low-weight points (<1% of avg)   =       5.76%
 GePol: Cavity surface area                          =    369.241 Ang**2
 GePol: Cavity volume                                =    411.656 Ang**3
 Leave Link  301 at Mon Feb 17 09:27:58 2020, MaxMem=  6710886400 cpu:         2.3
 (Enter /opt/sys/apps/gaussian09/D.01/g09/l302.exe)
 NPDir=0 NMtPBC=     1 NCelOv=     1 NCel=       1 NClECP=     1 NCelD=      1
         NCelK=      1 NCelE2=     1 NClLst=     1 CellRange=     0.0.
 One-electron integrals computed using PRISM.
 NBasis=   620 RedAO= T EigKep=  1.70D-06  NBF=   620
 NBsUse=   611 1.00D-06 EigRej=  9.64D-07 NBFU=   611
 Precomputing XC quadrature grid using
 IXCGrd= 4 IRadAn=           0 IRanWt=          -1 IRanGd=           0 AccXCQ= 0.00D+00.
 Generated NRdTot=       0 NPtTot=           0 NUsed=           0 NTot=          32
 NSgBfM=   637   637   637   637   637 MxSgAt=    35 MxSgA2=    35.
 Leave Link  302 at Mon Feb 17 09:27:59 2020, MaxMem=  6710886400 cpu:        19.8
 (Enter /opt/sys/apps/gaussian09/D.01/g09/l308.exe)
 Leave Link  308 at Mon Feb 17 09:27:59 2020, MaxMem=  6710886400 cpu:         2.9
 (Enter /opt/sys/apps/gaussian09/D.01/g09/l303.exe)
 DipDrv:  MaxL=1.
 Leave Link  303 at Mon Feb 17 09:28:00 2020, MaxMem=  6710886400 cpu:         7.5
 (Enter /opt/sys/apps/gaussian09/D.01/g09/l401.exe)
 ExpMin= 3.60D-02 ExpMax= 8.59D+03 ExpMxC= 1.30D+03 IAcc=3 IRadAn=         5 AccDes= 0.00D+00
 Harris functional with IExCor=20419 and IRadAn=       5 diagonalized for initial guess.
 HarFok:  IExCor=20419 AccDes= 0.00D+00 IRadAn=         5 IDoV= 1 UseB2=F ITyADJ=14
 ICtDFT=  3500011 ScaDFX=  1.000000  1.000000  1.000000  1.000000
 FoFCou: FMM=F IPFlag=           0 FMFlag=      100000 FMFlg1=           0
         NFxFlg=           0 DoJE=T BraDBF=F KetDBF=T FulRan=T
         wScrn=  0.000000 ICntrl=     500 IOpCl=  0 I1Cent=   200000004 NGrid=           0
         NMat0=    1 NMatS0=      1 NMatT0=    0 NMatD0=    1 NMtDS0=    0 NMtDT0=    0
 Symmetry not used in FoFCou.
 Harris En= -1091.13963008802    
 JPrj=0 DoOrth=F DoCkMO=F.
 Leave Link  401 at Mon Feb 17 09:28:03 2020, MaxMem=  6710886400 cpu:        66.0
 (Enter /opt/sys/apps/gaussian09/D.01/g09/l502.exe)
 Closed shell SCF:
 Using DIIS extrapolation, IDIIS=  1040.
 Two-electron integral symmetry not used.
 IVT=     1286045 IEndB=     1286045 NGot=  6710886400 MDV=  6710033666
 LenX=  6710033666 LenY=  6709616996
 Requested convergence on RMS density matrix=1.00D-08 within 128 cycles.
 Requested convergence on MAX density matrix=1.00D-06.
 Requested convergence on             energy=1.00D-06.
 No special actions if energy rises.
 Fock matrices will be formed incrementally for  20 cycles.

 Cycle   1  Pass 1  IDiag  1:
 FoFJK:  IHMeth= 1 ICntrl=       0 DoSepK=T KAlg= 0 I1Cent=   0 FoldK=F
 IRaf=         1 NMat=   1 IRICut=       1 DoRegI=T DoRafI=F ISym2E= 0.
 FoFCou: FMM=F IPFlag=           0 FMFlag=      100000 FMFlg1=           0
         NFxFlg=           0 DoJE=T BraDBF=F KetDBF=F FulRan=T
         wScrn=  0.000000 ICntrl=     500 IOpCl=  0 I1Cent=           0 NGrid=           0
         NMat0=    1 NMatS0=      1 NMatT0=    0 NMatD0=    1 NMtDS0=    0 NMtDT0=    0
 Symmetry not used in FoFCou.
 Inv3:  Mode=1 IEnd=    25212603.
 Iteration    1 A*A^-1 deviation from unit magnitude is 7.77D-15 for   2886.
 Iteration    1 A*A^-1 deviation from orthogonality  is 5.32D-15 for   2880   1546.
 Iteration    1 A^-1*A deviation from unit magnitude is 7.55D-15 for   2886.
 Iteration    1 A^-1*A deviation from orthogonality  is 3.15D-15 for   2897   1771.
 E= -1143.22082410844    
 DIIS: error= 8.83D-02 at cycle   1 NSaved=   1.
 NSaved= 1 IEnMin= 1 EnMin= -1143.22082410844     IErMin= 1 ErrMin= 8.83D-02
 ErrMax= 8.83D-02  0.00D+00 EMaxC= 1.00D-01 BMatC= 1.93D+00 BMatP= 1.93D+00
 IDIUse=3 WtCom= 1.17D-01 WtEn= 8.83D-01
 Coeff-Com:  0.100D+01
 Coeff-En:   0.100D+01
 Coeff:      0.100D+01
 Gap=     0.259 Goal=   None    Shift=    0.000
 GapD=    0.259 DampG=1.000 DampE=0.500 DampFc=0.5000 IDamp=-1.
 Damping current iteration by 5.00D-01
 RMSDP=2.10D-02 MaxDP=2.80D+00              OVMax= 1.83D-01

 Cycle   2  Pass 1  IDiag  1:
 RMSU=  6.91D-03    CP:  8.69D-01
 E= -1143.37709164994     Delta-E=       -0.156267541508 Rises=F Damp=T
 DIIS: error= 4.11D-02 at cycle   2 NSaved=   2.
 NSaved= 2 IEnMin= 2 EnMin= -1143.37709164994     IErMin= 2 ErrMin= 4.11D-02
 ErrMax= 4.11D-02  0.00D+00 EMaxC= 1.00D-01 BMatC= 3.92D-01 BMatP= 1.93D+00
 IDIUse=3 WtCom= 5.89D-01 WtEn= 4.11D-01
 Coeff-Com: -0.560D+00 0.156D+01
 Coeff-En:   0.000D+00 0.100D+01
 Coeff:     -0.330D+00 0.133D+01
 Gap=     0.267 Goal=   None    Shift=    0.000
 RMSDP=1.06D-02 MaxDP=1.42D+00 DE=-1.56D-01 OVMax= 1.47D-01

 Cycle   3  Pass 1  IDiag  1:
 RMSU=  5.14D-03    CP:  7.62D-01  1.95D+00
 E= -1143.50574204293     Delta-E=       -0.128650392990 Rises=F Damp=F
 DIIS: error= 1.35D-02 at cycle   3 NSaved=   3.
 NSaved= 3 IEnMin= 3 EnMin= -1143.50574204293     IErMin= 3 ErrMin= 1.35D-02
 ErrMax= 1.35D-02  0.00D+00 EMaxC= 1.00D-01 BMatC= 6.22D-02 BMatP= 3.92D-01
 IDIUse=3 WtCom= 8.65D-01 WtEn= 1.35D-01
 Coeff-Com: -0.290D+00 0.632D+00 0.658D+00
 Coeff-En:   0.000D+00 0.000D+00 0.100D+01
 Coeff:     -0.251D+00 0.546D+00 0.704D+00
 Gap=     0.253 Goal=   None    Shift=    0.000
 RMSDP=3.59D-03 MaxDP=5.40D-01 DE=-1.29D-01 OVMax= 4.48D-02

 Cycle   4  Pass 1  IDiag  1:
 RMSU=  1.18D-03    CP:  7.12D-01  2.13D+00  8.12D-01
 E= -1143.54649401358     Delta-E=       -0.040751970649 Rises=F Damp=F
 DIIS: error= 4.02D-03 at cycle   4 NSaved=   4.
 NSaved= 4 IEnMin= 4 EnMin= -1143.54649401358     IErMin= 4 ErrMin= 4.02D-03
 ErrMax= 4.02D-03  0.00D+00 EMaxC= 1.00D-01 BMatC= 4.57D-03 BMatP= 6.22D-02
 IDIUse=3 WtCom= 9.60D-01 WtEn= 4.02D-02
 Coeff-Com: -0.971D-01 0.210D+00 0.340D+00 0.547D+00
 Coeff-En:   0.000D+00 0.000D+00 0.000D+00 0.100D+01
 Coeff:     -0.932D-01 0.201D+00 0.327D+00 0.565D+00
 Gap=     0.252 Goal=   None    Shift=    0.000
 RMSDP=4.99D-04 MaxDP=3.43D-02 DE=-4.08D-02 OVMax= 7.87D-03

 Cycle   5  Pass 1  IDiag  1:
 RMSU=  3.27D-04    CP:  7.14D-01  2.14D+00  8.74D-01  9.21D-01
 E= -1143.54948105876     Delta-E=       -0.002987045175 Rises=F Damp=F
 DIIS: error= 4.07D-04 at cycle   5 NSaved=   5.
 NSaved= 5 IEnMin= 5 EnMin= -1143.54948105876     IErMin= 5 ErrMin= 4.07D-04
 ErrMax= 4.07D-04  0.00D+00 EMaxC= 1.00D-01 BMatC= 7.64D-05 BMatP= 4.57D-03
 IDIUse=3 WtCom= 9.96D-01 WtEn= 4.07D-03
 Coeff-Com:  0.196D-01-0.434D-01-0.214D-01 0.871D-01 0.958D+00
 Coeff-En:   0.000D+00 0.000D+00 0.000D+00 0.000D+00 0.100D+01
 Coeff:      0.195D-01-0.432D-01-0.213D-01 0.867D-01 0.958D+00
 Gap=     0.254 Goal=   None    Shift=    0.000
 RMSDP=5.57D-04 MaxDP=7.84D-02 DE=-2.99D-03 OVMax= 3.91D-03

 Cycle   6  Pass 1  IDiag  1:
 RMSU=  1.28D-04    CP:  7.07D-01  2.17D+00  9.11D-01  1.11D+00  1.25D+00
 E= -1143.54961463625     Delta-E=       -0.000133577495 Rises=F Damp=F
 DIIS: error= 3.82D-04 at cycle   6 NSaved=   6.
 NSaved= 6 IEnMin= 6 EnMin= -1143.54961463625     IErMin= 6 ErrMin= 3.82D-04
 ErrMax= 3.82D-04  0.00D+00 EMaxC= 1.00D-01 BMatC= 3.01D-05 BMatP= 7.64D-05
 IDIUse=3 WtCom= 9.96D-01 WtEn= 3.82D-03
 Coeff-Com:  0.208D-01-0.451D-01-0.513D-01-0.320D-01 0.464D+00 0.644D+00
 Coeff-En:   0.000D+00 0.000D+00 0.000D+00 0.000D+00 0.000D+00 0.100D+01
 Coeff:      0.207D-01-0.449D-01-0.511D-01-0.319D-01 0.462D+00 0.645D+00
 Gap=     0.254 Goal=   None    Shift=    0.000
 RMSDP=1.22D-04 MaxDP=1.61D-02 DE=-1.34D-04 OVMax= 2.62D-03

 Cycle   7  Pass 1  IDiag  1:
 RMSU=  5.38D-05    CP:  7.06D-01  2.18D+00  9.16D-01  1.15D+00  1.35D+00
                    CP:  1.15D+00
 E= -1143.54964953624     Delta-E=       -0.000034899988 Rises=F Damp=F
 DIIS: error= 1.06D-04 at cycle   7 NSaved=   7.
 NSaved= 7 IEnMin= 7 EnMin= -1143.54964953624     IErMin= 7 ErrMin= 1.06D-04
 ErrMax= 1.06D-04  0.00D+00 EMaxC= 1.00D-01 BMatC= 2.35D-06 BMatP= 3.01D-05
 IDIUse=3 WtCom= 9.99D-01 WtEn= 1.06D-03
 Coeff-Com:  0.217D-03-0.350D-03-0.543D-02-0.195D-01-0.695D-01 0.151D+00
 Coeff-Com:  0.943D+00
 Coeff-En:   0.000D+00 0.000D+00 0.000D+00 0.000D+00 0.000D+00 0.000D+00
 Coeff-En:   0.100D+01
 Coeff:      0.217D-03-0.350D-03-0.543D-02-0.195D-01-0.694D-01 0.151D+00
 Coeff:      0.943D+00
 Gap=     0.255 Goal=   None    Shift=    0.000
 RMSDP=6.17D-05 MaxDP=7.99D-03 DE=-3.49D-05 OVMax= 1.08D-03

 Cycle   8  Pass 1  IDiag  1:
 RMSU=  2.03D-05    CP:  7.05D-01  2.18D+00  9.16D-01  1.16D+00  1.39D+00
                    CP:  1.35D+00  1.18D+00
 E= -1143.54965521329     Delta-E=       -0.000005677045 Rises=F Damp=F
 DIIS: error= 3.37D-05 at cycle   8 NSaved=   8.
 NSaved= 8 IEnMin= 8 EnMin= -1143.54965521329     IErMin= 8 ErrMin= 3.37D-05
 ErrMax= 3.37D-05  0.00D+00 EMaxC= 1.00D-01 BMatC= 3.63D-07 BMatP= 2.35D-06
 IDIUse=1 WtCom= 1.00D+00 WtEn= 0.00D+00
 Coeff-Com: -0.317D-02 0.691D-02 0.633D-02-0.199D-02-0.928D-01-0.250D-01
 Coeff-Com:  0.269D+00 0.841D+00
 Coeff:     -0.317D-02 0.691D-02 0.633D-02-0.199D-02-0.928D-01-0.250D-01
 Coeff:      0.269D+00 0.841D+00
 Gap=     0.255 Goal=   None    Shift=    0.000
 RMSDP=1.52D-05 MaxDP=1.14D-03 DE=-5.68D-06 OVMax= 4.94D-04

 Cycle   9  Pass 1  IDiag  1:
 RMSU=  5.61D-06    CP:  7.05D-01  2.18D+00  9.17D-01  1.16D+00  1.39D+00
                    CP:  1.43D+00  1.22D+00  1.25D+00
 E= -1143.54965622644     Delta-E=       -0.000001013158 Rises=F Damp=F
 DIIS: error= 1.71D-05 at cycle   9 NSaved=   9.
 NSaved= 9 IEnMin= 9 EnMin= -1143.54965622644     IErMin= 9 ErrMin= 1.71D-05
 ErrMax= 1.71D-05  0.00D+00 EMaxC= 1.00D-01 BMatC= 6.08D-08 BMatP= 3.63D-07
 IDIUse=1 WtCom= 1.00D+00 WtEn= 0.00D+00
 Coeff-Com: -0.415D-03 0.875D-03 0.166D-02 0.219D-02-0.253D-02-0.180D-01
 Coeff-Com: -0.157D+00 0.151D+00 0.102D+01
 Coeff:     -0.415D-03 0.875D-03 0.166D-02 0.219D-02-0.253D-02-0.180D-01
 Coeff:     -0.157D+00 0.151D+00 0.102D+01
 Gap=     0.255 Goal=   None    Shift=    0.000
 RMSDP=5.82D-06 MaxDP=2.48D-04 DE=-1.01D-06 OVMax= 3.49D-04

 Cycle  10  Pass 1  IDiag  1:
 RMSU=  3.04D-06    CP:  7.05D-01  2.18D+00  9.17D-01  1.16D+00  1.39D+00
                    CP:  1.44D+00  1.23D+00  1.41D+00  1.23D+00
 E= -1143.54965645341     Delta-E=       -0.000000226966 Rises=F Damp=F
 DIIS: error= 6.86D-06 at cycle  10 NSaved=  10.
 NSaved=10 IEnMin=10 EnMin= -1143.54965645341     IErMin=10 ErrMin= 6.86D-06
 ErrMax= 6.86D-06  0.00D+00 EMaxC= 1.00D-01 BMatC= 1.08D-08 BMatP= 6.08D-08
 IDIUse=1 WtCom= 1.00D+00 WtEn= 0.00D+00
 Coeff-Com:  0.245D-03-0.536D-03-0.301D-03 0.737D-03 0.945D-02 0.126D-02
 Coeff-Com: -0.832D-01-0.569D-01 0.336D+00 0.793D+00
 Coeff:      0.245D-03-0.536D-03-0.301D-03 0.737D-03 0.945D-02 0.126D-02
 Coeff:     -0.832D-01-0.569D-01 0.336D+00 0.793D+00
 Gap=     0.255 Goal=   None    Shift=    0.000
 RMSDP=2.26D-06 MaxDP=1.79D-04 DE=-2.27D-07 OVMax= 8.16D-05

 Cycle  11  Pass 1  IDiag  1:
 RMSU=  1.24D-06    CP:  7.05D-01  2.18D+00  9.17D-01  1.16D+00  1.39D+00
                    CP:  1.44D+00  1.20D+00  1.43D+00  1.30D+00  1.17D+00
 E= -1143.54965648407     Delta-E=       -0.000000030662 Rises=F Damp=F
 DIIS: error= 3.18D-06 at cycle  11 NSaved=  11.
 NSaved=11 IEnMin=11 EnMin= -1143.54965648407     IErMin=11 ErrMin= 3.18D-06
 ErrMax= 3.18D-06  0.00D+00 EMaxC= 1.00D-01 BMatC= 2.38D-09 BMatP= 1.08D-08
 IDIUse=1 WtCom= 1.00D+00 WtEn= 0.00D+00
 Coeff-Com:  0.173D-03-0.373D-03-0.469D-03-0.150D-03 0.413D-02 0.543D-02
 Coeff-Com: -0.748D-03-0.602D-01-0.820D-01 0.259D+00 0.875D+00
 Coeff:      0.173D-03-0.373D-03-0.469D-03-0.150D-03 0.413D-02 0.543D-02
 Coeff:     -0.748D-03-0.602D-01-0.820D-01 0.259D+00 0.875D+00
 Gap=     0.255 Goal=   None    Shift=    0.000
 RMSDP=1.42D-06 MaxDP=7.67D-05 DE=-3.07D-08 OVMax= 6.03D-05

 Cycle  12  Pass 1  IDiag  1:
 RMSU=  6.29D-07    CP:  7.05D-01  2.18D+00  9.17D-01  1.16D+00  1.39D+00
                    CP:  1.44D+00  1.20D+00  1.43D+00  1.33D+00  1.43D+00
                    CP:  1.25D+00
 E= -1143.54965649228     Delta-E=       -0.000000008206 Rises=F Damp=F
 DIIS: error= 1.29D-06 at cycle  12 NSaved=  12.
 NSaved=12 IEnMin=12 EnMin= -1143.54965649228     IErMin=12 ErrMin= 1.29D-06
 ErrMax= 1.29D-06  0.00D+00 EMaxC= 1.00D-01 BMatC= 5.48D-10 BMatP= 2.38D-09
 IDIUse=1 WtCom= 1.00D+00 WtEn= 0.00D+00
 Coeff-Com:  0.287D-05-0.530D-05-0.874D-04-0.195D-03-0.656D-03 0.233D-02
 Coeff-Com:  0.180D-01-0.111D-01-0.989D-01-0.863D-01 0.345D+00 0.832D+00
 Coeff:      0.287D-05-0.530D-05-0.874D-04-0.195D-03-0.656D-03 0.233D-02
 Coeff:      0.180D-01-0.111D-01-0.989D-01-0.863D-01 0.345D+00 0.832D+00
 Gap=     0.255 Goal=   None    Shift=    0.000
 RMSDP=7.30D-07 MaxDP=6.28D-05 DE=-8.21D-09 OVMax= 2.63D-05

 Cycle  13  Pass 1  IDiag  1:
 RMSU=  3.35D-07    CP:  7.05D-01  2.18D+00  9.17D-01  1.16D+00  1.39D+00
                    CP:  1.43D+00  1.19D+00  1.42D+00  1.32D+00  1.55D+00
                    CP:  1.44D+00  1.50D+00
 E= -1143.54965649379     Delta-E=       -0.000000001509 Rises=F Damp=F
 DIIS: error= 6.36D-07 at cycle  13 NSaved=  13.
 NSaved=13 IEnMin=13 EnMin= -1143.54965649379     IErMin=13 ErrMin= 6.36D-07
 ErrMax= 6.36D-07  0.00D+00 EMaxC= 1.00D-01 BMatC= 1.11D-10 BMatP= 5.48D-10
 IDIUse=1 WtCom= 1.00D+00 WtEn= 0.00D+00
 Coeff-Com: -0.242D-04 0.528D-04 0.455D-04-0.585D-04-0.985D-03 0.166D-03
 Coeff-Com:  0.629D-02 0.614D-02-0.187D-01-0.819D-01-0.322D-01 0.314D+00
 Coeff-Com:  0.807D+00
 Coeff:     -0.242D-04 0.528D-04 0.455D-04-0.585D-04-0.985D-03 0.166D-03
 Coeff:      0.629D-02 0.614D-02-0.187D-01-0.819D-01-0.322D-01 0.314D+00
 Coeff:      0.807D+00
 Gap=     0.255 Goal=   None    Shift=    0.000
 RMSDP=3.48D-07 MaxDP=2.96D-05 DE=-1.51D-09 OVMax= 1.06D-05

 Cycle  14  Pass 1  IDiag  1:
 RMSU=  9.43D-08    CP:  7.05D-01  2.18D+00  9.17D-01  1.16D+00  1.40D+00
                    CP:  1.43D+00  1.19D+00  1.42D+00  1.31D+00  1.58D+00
                    CP:  1.50D+00  1.81D+00  1.29D+00
 E= -1143.54965649426     Delta-E=       -0.000000000474 Rises=F Damp=F
 DIIS: error= 2.81D-07 at cycle  14 NSaved=  14.
 NSaved=14 IEnMin=14 EnMin= -1143.54965649426     IErMin=14 ErrMin= 2.81D-07
 ErrMax= 2.81D-07  0.00D+00 EMaxC= 1.00D-01 BMatC= 2.40D-11 BMatP= 1.11D-10
 IDIUse=1 WtCom= 1.00D+00 WtEn= 0.00D+00
 Coeff-Com: -0.448D-05 0.979D-05 0.263D-04 0.689D-05-0.203D-03-0.311D-03
 Coeff-Com: -0.152D-02 0.410D-02 0.137D-01-0.167D-01-0.883D-01-0.473D-01
 Coeff-Com:  0.326D+00 0.810D+00
 Coeff:     -0.448D-05 0.979D-05 0.263D-04 0.689D-05-0.203D-03-0.311D-03
 Coeff:     -0.152D-02 0.410D-02 0.137D-01-0.167D-01-0.883D-01-0.473D-01
 Coeff:      0.326D+00 0.810D+00
 Gap=     0.255 Goal=   None    Shift=    0.000
 RMSDP=2.27D-07 MaxDP=2.54D-05 DE=-4.74D-10 OVMax= 5.56D-06

 Cycle  15  Pass 1  IDiag  1:
 RMSU=  5.76D-08    CP:  7.05D-01  2.18D+00  9.17D-01  1.16D+00  1.40D+00
                    CP:  1.43D+00  1.20D+00  1.42D+00  1.30D+00  1.60D+00
                    CP:  1.54D+00  1.97D+00  1.48D+00  1.29D+00
 E= -1143.54965649425     Delta-E=        0.000000000011 Rises=F Damp=F
 DIIS: error= 1.24D-07 at cycle  15 NSaved=  15.
 NSaved=15 IEnMin=14 EnMin= -1143.54965649426     IErMin=15 ErrMin= 1.24D-07
 ErrMax= 1.24D-07  0.00D+00 EMaxC= 1.00D-01 BMatC= 2.18D-12 BMatP= 2.40D-11
 IDIUse=1 WtCom= 1.00D+00 WtEn= 0.00D+00
 Coeff-Com:  0.287D-05-0.619D-05-0.963D-06 0.117D-04 0.104D-03-0.761D-04
 Coeff-Com: -0.110D-02-0.391D-03 0.581D-02 0.101D-01-0.837D-02-0.579D-01
 Coeff-Com: -0.840D-01 0.149D+00 0.987D+00
 Coeff:      0.287D-05-0.619D-05-0.963D-06 0.117D-04 0.104D-03-0.761D-04
 Coeff:     -0.110D-02-0.391D-03 0.581D-02 0.101D-01-0.837D-02-0.579D-01
 Coeff:     -0.840D-01 0.149D+00 0.987D+00
 Gap=     0.255 Goal=   None    Shift=    0.000
 RMSDP=5.84D-08 MaxDP=5.20D-06 DE= 1.14D-11 OVMax= 2.10D-06

 Cycle  16  Pass 1  IDiag  1:
 RMSU=  1.97D-08    CP:  7.05D-01  2.18D+00  9.17D-01  1.16D+00  1.40D+00
                    CP:  1.43D+00  1.20D+00  1.42D+00  1.30D+00  1.60D+00
                    CP:  1.55D+00  2.01D+00  1.55D+00  1.48D+00  1.19D+00
 E= -1143.54965649425     Delta-E=        0.000000000005 Rises=F Damp=F
 DIIS: error= 3.89D-08 at cycle  16 NSaved=  16.
 NSaved=16 IEnMin=14 EnMin= -1143.54965649426     IErMin=16 ErrMin= 3.89D-08
 ErrMax= 3.89D-08  0.00D+00 EMaxC= 1.00D-01 BMatC= 4.38D-13 BMatP= 2.18D-12
 IDIUse=1 WtCom= 1.00D+00 WtEn= 0.00D+00
 Coeff-Com:  0.121D-05-0.262D-05-0.257D-05 0.482D-05 0.551D-04 0.600D-05
 Coeff-Com: -0.115D-03-0.785D-03 0.890D-04 0.549D-02 0.883D-02-0.118D-01
 Coeff-Com: -0.719D-01-0.615D-01 0.330D+00 0.802D+00
 Coeff:      0.121D-05-0.262D-05-0.257D-05 0.482D-05 0.551D-04 0.600D-05
 Coeff:     -0.115D-03-0.785D-03 0.890D-04 0.549D-02 0.883D-02-0.118D-01
 Coeff:     -0.719D-01-0.615D-01 0.330D+00 0.802D+00
 Gap=     0.255 Goal=   None    Shift=    0.000
 RMSDP=1.79D-08 MaxDP=1.12D-06 DE= 4.55D-12 OVMax= 6.19D-07

 Cycle  17  Pass 1  IDiag  1:
 RMSU=  7.45D-09    CP:  7.05D-01  2.18D+00  9.17D-01  1.16D+00  1.40D+00
                    CP:  1.43D+00  1.20D+00  1.42D+00  1.30D+00  1.60D+00
                    CP:  1.55D+00  2.02D+00  1.55D+00  1.55D+00  1.31D+00
                    CP:  1.09D+00
 E= -1143.54965649433     Delta-E=       -0.000000000087 Rises=F Damp=F
 DIIS: error= 1.59D-08 at cycle  17 NSaved=  17.
 NSaved=17 IEnMin=17 EnMin= -1143.54965649433     IErMin=17 ErrMin= 1.59D-08
 ErrMax= 1.59D-08  0.00D+00 EMaxC= 1.00D-01 BMatC= 4.93D-14 BMatP= 4.38D-13
 IDIUse=1 WtCom= 1.00D+00 WtEn= 0.00D+00
 Coeff-Com:  0.923D-07-0.187D-06-0.928D-06-0.987D-06-0.157D-05 0.189D-04
 Coeff-Com:  0.173D-03-0.184D-03-0.979D-03-0.150D-03 0.314D-02 0.680D-02
 Coeff-Com: -0.268D-02-0.418D-01-0.862D-01 0.144D+00 0.978D+00
 Coeff:      0.923D-07-0.187D-06-0.928D-06-0.987D-06-0.157D-05 0.189D-04
 Coeff:      0.173D-03-0.184D-03-0.979D-03-0.150D-03 0.314D-02 0.680D-02
 Coeff:     -0.268D-02-0.418D-01-0.862D-01 0.144D+00 0.978D+00
 Gap=     0.255 Goal=   None    Shift=    0.000
 RMSDP=9.03D-09 MaxDP=8.27D-07 DE=-8.69D-11 OVMax= 2.95D-07

 Error on total polarization charges =  0.02941
 SCF Done:  E(RCAM-B3LYP) =  -1143.54965649     A.U. after   17 cycles
            NFock= 17  Conv=0.90D-08     -V/T= 2.0038
 KE= 1.139264218705D+03 PE=-6.772023297176D+03 EE= 2.459321135309D+03
 Leave Link  502 at Mon Feb 17 09:31:15 2020, MaxMem=  6710886400 cpu:      4547.8
 (Enter /opt/sys/apps/gaussian09/D.01/g09/l801.exe)
 DoSCS=F DFT=T ScalE2(SS,OS)=  1.000000  1.000000
 ExpMin= 3.60D-02 ExpMax= 8.59D+03 ExpMxC= 1.30D+03 IAcc=3 IRadAn=         5 AccDes= 0.00D+00
 HarFok:  IExCor=  205 AccDes= 0.00D+00 IRadAn=         5 IDoV=-2 UseB2=F ITyADJ=14
 ICtDFT= 12500011 ScaDFX=  1.000000  1.000000  1.000000  1.000000
 Largest valence mixing into a core orbital is  4.77D-05
 Largest core mixing into a valence orbital is  1.26D-05
 Range of M.O.s used for correlation:    26   611
 NBasis=   620 NAE=    86 NBE=    86 NFC=    25 NFV=     0
 NROrb=    586 NOA=    61 NOB=    61 NVA=   525 NVB=   525

 **** Warning!!: The largest alpha MO coefficient is  0.15416436D+03

 Leave Link  801 at Mon Feb 17 09:31:16 2020, MaxMem=  6710886400 cpu:         4.2
 (Enter /opt/sys/apps/gaussian09/D.01/g09/l914.exe)
 RHF ground state
 MDV=  6710886400 DFT=T DoStab=F Mixed=T DoRPA=T DoScal=F NonHer=T
 Would need an additional        106167300000 words for in-memory AO integral storage.
 NEqPCM:  Using non-equilibrium solvation (IEInf=1, Eps=  78.3553, EpsInf=   1.7778)
 Inv3:  Mode=1 IEnd=    25212603.
 Iteration    1 A*A^-1 deviation from unit magnitude is 7.77D-15 for   2886.
 Iteration    1 A*A^-1 deviation from orthogonality  is 5.32D-15 for   2880   1546.
 Iteration    1 A^-1*A deviation from unit magnitude is 7.55D-15 for   2886.
 Iteration    1 A^-1*A deviation from orthogonality  is 3.15D-15 for   2897   1771.
 Making orbital integer symmetry assigments:
    40 initial guesses have been made.
 Convergence on wavefunction:    0.000001000000000
 Davidson Disk Diagonalization:  ConvIn= 1.00D-06 SkipCon=T Conv= 1.00D-06.
 Max sub-space:   200 roots to seek:    40 dimension of matrix:        64050
 Iteration     1 Dimension    40 NMult     0 NNew     40
 CISAX will form    40 AO SS matrices at one time.
 NMat=    40 NSing=    40 JSym2X= 0.
 FoFJK:  IHMeth= 1 ICntrl=       0 DoSepK=T KAlg= 0 I1Cent=   0 FoldK=F
 IRaf=         1 NMat=  80 IRICut=       1 DoRegI=T DoRafI=F ISym2E= 0.
 New state      2 was old state      5
 New state      3 was old state     10
 New state      4 was old state      2
 New state      5 was old state      3
 New state      6 was old state     15
 New state      7 was old state      9
 New state      8 was old state     23
 New state      9 was old state      6
 New state     10 was old state     16
 Excitation Energies [eV] at current iteration:
 Root      1 :     3.727546666727263
 Root      2 :     4.822336794500586
 Root      3 :     5.315663388598412
 Root      4 :     5.396172758655286
 Root      5 :     5.548740346024731
 Root      6 :     5.610212808593176
 Root      7 :     5.664241339375208
 Root      8 :     5.673800168141204
 Root      9 :     5.793192803781685
 Root     10 :     5.805151427172167
 Root     11 :     5.843190133207214
 Root     12 :     5.976538129343522
 Root     13 :     6.011941140875154
 Root     14 :     6.072181228861876
 Root     15 :     6.119611444589628
 Root     16 :     6.175766395944286
 Root     17 :     6.340897910034696
 Root     18 :     6.344043483084148
 Root     19 :     6.447170755207608
 Root     20 :     6.457594252833412
 Root     21 :     6.509610679319509
 Root     22 :     6.538848068553414
 Root     23 :     6.587942049104742
 Root     24 :     6.795834659911721
 Root     25 :     6.922605143604115
 Root     26 :     6.954546433997970
 Root     27 :     7.074733716387950
 Root     28 :     7.087678007376480
 Root     29 :     7.275055982423933
 Root     30 :     7.346618366693117
 Root     31 :     7.446518064640880
 Root     32 :     7.517187132992404
 Root     33 :     7.615121483204673
 Root     34 :     7.645603863323131
 Root     35 :     7.715459878953487
 Root     36 :     7.744808774309676
 Root     37 :     7.787828822500554
 Root     38 :     8.068567296563929
 Root     39 :     8.132950397072124
 Root     40 :     8.361446286477756
 Iteration     2 Dimension    60 NMult    40 NNew     20
 CISAX will form    20 AO SS matrices at one time.
 NMat=    20 NSing=    20 JSym2X= 0.
 Root      1 not converged, maximum delta is    0.077353866871109
 Root      2 not converged, maximum delta is    0.083864989251484
 Root      3 not converged, maximum delta is    0.131814208678391
 New state      4 was old state     10
 Root      4 not converged, maximum delta is    0.233008182671883
 New state      5 was old state      6
 Root      5 not converged, maximum delta is    0.176093587812100
 New state      6 was old state      8
 Root      6 not converged, maximum delta is    0.256954894078028
 New state      7 was old state      4
 Root      7 not converged, maximum delta is    0.130175091801306
 New state      8 was old state      5
 Root      8 not converged, maximum delta is    0.349329287209347
 Root      9 not converged, maximum delta is    0.126005637466854
 New state     10 was old state      7
 Root     10 not converged, maximum delta is    0.405216259728150
 Excitation Energies [eV] at current iteration:
 Root      1 :     3.095738999352600   Change is   -0.631807667374663
 Root      2 :     4.329522050704998   Change is   -0.492814743795589
 Root      3 :     4.781542772823393   Change is   -0.534120615775019
 Root      4 :     4.907055255656879   Change is   -0.898096171515288
 Root      5 :     4.952582008818798   Change is   -0.657630799774378
 Root      6 :     5.015946270692237   Change is   -0.657853897448968
 Root      7 :     5.084632448353986   Change is   -0.311540310301300
 Root      8 :     5.121029251206151   Change is   -0.427711094818580
 Root      9 :     5.431458005391821   Change is   -0.361734798389864
 Root     10 :     5.458861771383534   Change is   -0.205379567991674
 Iteration     3 Dimension    80 NMult    60 NNew     20
 CISAX will form    20 AO SS matrices at one time.
 NMat=    20 NSing=    20 JSym2X= 0.
 Root      1 not converged, maximum delta is    0.023508191804144
 Root      2 not converged, maximum delta is    0.019235429392860
 Root      3 not converged, maximum delta is    0.042924043074280
 New state      4 was old state      5
 Root      4 not converged, maximum delta is    0.125276012823659
 New state      5 was old state      4
 Root      5 not converged, maximum delta is    0.032942938539747
 Root      6 not converged, maximum delta is    0.075402067264958
 New state      7 was old state      8
 Root      7 not converged, maximum delta is    0.081456058902060
 New state      8 was old state      7
 Root      8 not converged, maximum delta is    0.022002555494915
 Root      9 not converged, maximum delta is    0.050347482051346
 Root     10 not converged, maximum delta is    0.050315208626608
 Excitation Energies [eV] at current iteration:
 Root      1 :     3.041445864081894   Change is   -0.054293135270706
 Root      2 :     4.289416945502308   Change is   -0.040105105202690
 Root      3 :     4.719955572249535   Change is   -0.061587200573857
 Root      4 :     4.753392533340723   Change is   -0.199189475478074
 Root      5 :     4.782634292338813   Change is   -0.124420963318066
 Root      6 :     4.902180574889324   Change is   -0.113765695802913
 Root      7 :     5.036137627084521   Change is   -0.084891624121630
 Root      8 :     5.062820628000168   Change is   -0.021811820353819
 Root      9 :     5.393513379004680   Change is   -0.037944626387141
 Root     10 :     5.444063829474031   Change is   -0.014797941909504
 Iteration     4 Dimension   100 NMult    80 NNew     20
 CISAX will form    20 AO SS matrices at one time.
 NMat=    20 NSing=    20 JSym2X= 0.
 Root      1 not converged, maximum delta is    0.012519457136863
 Root      2 not converged, maximum delta is    0.004801931595692
 Root      3 not converged, maximum delta is    0.025858877831430
 Root      4 not converged, maximum delta is    0.039570075764566
 Root      5 not converged, maximum delta is    0.008213403118665
 Root      6 not converged, maximum delta is    0.020891108627489
 Root      7 not converged, maximum delta is    0.026907366150681
 Root      8 not converged, maximum delta is    0.003572052913629
 Root      9 not converged, maximum delta is    0.016089336210139
 Root     10 not converged, maximum delta is    0.066402788246379
 Excitation Energies [eV] at current iteration:
 Root      1 :     3.029469186480855   Change is   -0.011976677601039
 Root      2 :     4.283889130827755   Change is   -0.005527814674553
 Root      3 :     4.708951991244974   Change is   -0.011003581004561
 Root      4 :     4.717084174928464   Change is   -0.036308358412260
 Root      5 :     4.775367604152308   Change is   -0.007266688186505
 Root      6 :     4.888114438458776   Change is   -0.014066136430548
 Root      7 :     5.021389695943345   Change is   -0.014747931141177
 Root      8 :     5.061428289468578   Change is   -0.001392338531589
 Root      9 :     5.388922047721014   Change is   -0.004591331283666
 Root     10 :     5.421598467264486   Change is   -0.022465362209544
 Iteration     5 Dimension   120 NMult   100 NNew     20
 CISAX will form    20 AO SS matrices at one time.
 NMat=    20 NSing=    20 JSym2X= 0.
 Root      1 not converged, maximum delta is    0.001752966735409
 Root      2 not converged, maximum delta is    0.002327712580924
 Root      3 not converged, maximum delta is    0.004957858048032
 Root      4 not converged, maximum delta is    0.006304208801270
 Root      5 not converged, maximum delta is    0.004122265286322
 Root      6 not converged, maximum delta is    0.010135100196746
 Root      7 not converged, maximum delta is    0.007963215178204
 Root      8 not converged, maximum delta is    0.001167774952092
 New state      9 was old state     10
 Root      9 not converged, maximum delta is    0.114360266188736
 New state     10 was old state      9
 Root     10 not converged, maximum delta is    0.073313344091781
 Excitation Energies [eV] at current iteration:
 Root      1 :     3.028687065710132   Change is   -0.000782120770723
 Root      2 :     4.283294701816674   Change is   -0.000594429011081
 Root      3 :     4.707315271712867   Change is   -0.001636719532107
 Root      4 :     4.713756854610112   Change is   -0.003327320318352
 Root      5 :     4.774327259702676   Change is   -0.001040344449632
 Root      6 :     4.884835709049479   Change is   -0.003278729409298
 Root      7 :     5.019130849173713   Change is   -0.002258846769631
 Root      8 :     5.061269918579697   Change is   -0.000158370888882
 Root      9 :     5.380143841306439   Change is   -0.041454625958047
 Root     10 :     5.388263712279247   Change is   -0.000658335441767
 Iteration     6 Dimension   140 NMult   120 NNew     20
 CISAX will form    20 AO SS matrices at one time.
 NMat=    20 NSing=    20 JSym2X= 0.
 Root      1 not converged, maximum delta is    0.000502109124951
 Root      2 not converged, maximum delta is    0.000486811637107
 Root      3 not converged, maximum delta is    0.001112359398765
 Root      4 not converged, maximum delta is    0.002154280697387
 Root      5 not converged, maximum delta is    0.002198398112887
 Root      6 not converged, maximum delta is    0.005398391084952
 Root      7 not converged, maximum delta is    0.005323363257615
 Root      8 not converged, maximum delta is    0.000591419600846
 Root      9 not converged, maximum delta is    0.115425877660073
 Root     10 not converged, maximum delta is    0.056579591743814
 Excitation Energies [eV] at current iteration:
 Root      1 :     3.028641452223416   Change is   -0.000045613486717
 Root      2 :     4.283233756355586   Change is   -0.000060945461087
 Root      3 :     4.707126681860137   Change is   -0.000188589852730
 Root      4 :     4.713380332902282   Change is   -0.000376521707831
 Root      5 :     4.774147055339008   Change is   -0.000180204363667
 Root      6 :     4.884219610654621   Change is   -0.000616098394857
 Root      7 :     5.018699784962998   Change is   -0.000431064210716
 Root      8 :     5.061249605303517   Change is   -0.000020313276180
 Root      9 :     5.331766535848962   Change is   -0.048377305457478
 Root     10 :     5.388004975147952   Change is   -0.000258737131295
 Iteration     7 Dimension   160 NMult   140 NNew     20
 CISAX will form    20 AO SS matrices at one time.
 NMat=    20 NSing=    20 JSym2X= 0.
 Root      1 not converged, maximum delta is    0.000108925356664
 Root      2 not converged, maximum delta is    0.000364353779494
 Root      3 not converged, maximum delta is    0.000562265710263
 Root      4 not converged, maximum delta is    0.000838988188691
 Root      5 not converged, maximum delta is    0.000781286664200
 Root      6 not converged, maximum delta is    0.001301890394471
 Root      7 not converged, maximum delta is    0.003083223311577
 Root      8 not converged, maximum delta is    0.000902478198737
 Root      9 not converged, maximum delta is    0.057400776598180
 Root     10 not converged, maximum delta is    0.004312195866445
 Excitation Energies [eV] at current iteration:
 Root      1 :     3.028638039211732   Change is   -0.000003413011684
 Root      2 :     4.283226530125242   Change is   -0.000007226230344
 Root      3 :     4.707104636358566   Change is   -0.000022045501571
 Root      4 :     4.713332971348674   Change is   -0.000047361553607
 Root      5 :     4.774123835652343   Change is   -0.000023219686665
 Root      6 :     4.884138267281286   Change is   -0.000081343373335
 Root      7 :     5.018570678787579   Change is   -0.000129106175420
 Root      8 :     5.061241014226527   Change is   -0.000008591076990
 Root      9 :     5.304485777033329   Change is   -0.027280758815633
 Root     10 :     5.387971696826868   Change is   -0.000033278321083
 Iteration     8 Dimension   180 NMult   160 NNew     20
 CISAX will form    20 AO SS matrices at one time.
 NMat=    20 NSing=    20 JSym2X= 0.
 Root      1 not converged, maximum delta is    0.000035155763451
 Root      2 not converged, maximum delta is    0.000156652132575
 Root      3 not converged, maximum delta is    0.000277479997475
 Root      4 not converged, maximum delta is    0.000368271618739
 Root      5 not converged, maximum delta is    0.000120911499224
 Root      6 not converged, maximum delta is    0.002206804497670
 Root      7 not converged, maximum delta is    0.001497320146897
 Root      8 not converged, maximum delta is    0.002675973520722
 Root      9 not converged, maximum delta is    0.355205664521215
 No map to state     10
 Excitation Energies [eV] at current iteration:
 Root      1 :     3.028637752490860   Change is   -0.000000286720872
 Root      2 :     4.283225564293248   Change is   -0.000000965831994
 Root      3 :     4.707101505283032   Change is   -0.000003131075534
 Root      4 :     4.713327213307545   Change is   -0.000005758041129
 Root      5 :     4.774121589406677   Change is   -0.000002246245666
 Root      6 :     4.884108570809020   Change is   -0.000029696472266
 Root      7 :     5.018542763295329   Change is   -0.000027915492249
 Root      8 :     5.061225739837498   Change is   -0.000015274389029
 Root      9 :     5.274578721813996   Change is   -0.029907055219333
 Root     10 :     5.301932891576381
 Iteration     9 Dimension   200 NMult   180 NNew     20
 CISAX will form    20 AO SS matrices at one time.
 NMat=    20 NSing=    20 JSym2X= 0.
 Root      1 not converged, maximum delta is    0.000007065981287
 Root      2 not converged, maximum delta is    0.000032783557222
 Root      3 not converged, maximum delta is    0.000069238332974
 Root      4 not converged, maximum delta is    0.000151955169608
 Root      5 not converged, maximum delta is    0.000030955604806
 Root      6 not converged, maximum delta is    0.001043680792735
 Root      7 not converged, maximum delta is    0.001006189099264
 Root      8 not converged, maximum delta is    0.002382416112922
 Root      9 not converged, maximum delta is    0.089017941605196
 Root     10 not converged, maximum delta is    0.111656499801236
 Excitation Energies [eV] at current iteration:
 Root      1 :     3.028637733601120   Change is   -0.000000018889739
 Root      2 :     4.283225460667320   Change is   -0.000000103625928
 Root      3 :     4.707101114420605   Change is   -0.000000390862426
 Root      4 :     4.713326408156962   Change is   -0.000000805150583
 Root      5 :     4.774121420287096   Change is   -0.000000169119582
 Root      6 :     4.884098358823787   Change is   -0.000010211985233
 Root      7 :     5.018536718754600   Change is   -0.000006044540729
 Root      8 :     5.061213663935843   Change is   -0.000012075901656
 Root      9 :     5.190021619217614   Change is   -0.084557102596382
 Root     10 :     5.298213336732990   Change is   -0.003719554843392
 Davidson failed to converge within maximum sub-space dimensions.
  Restart with updated initial guess:
 Iteration     1 Dimension    40 NMult   200 NNew     40
 CISAX will form    40 AO SS matrices at one time.
 NMat=    40 NSing=    40 JSym2X= 0.
 Excitation Energies [eV] at current iteration:
 Root      1 :     3.028637733463964
 Root      2 :     4.283225455664403
 Root      3 :     4.707101087327028
 Root      4 :     4.713326325865602
 Root      5 :     4.774121412037901
 Root      6 :     4.884097141381981
 Root      7 :     5.018535958063471
 Root      8 :     5.061211639609391
 Root      9 :     5.181275159566757
 Root     10 :     5.298016683994526
 Iteration     2 Dimension    60 NMult   240 NNew     20
 CISAX will form    20 AO SS matrices at one time.
 NMat=    20 NSing=    20 JSym2X= 0.
 Root      1 has converged.
 Root      2 not converged, maximum delta is    0.000001451753971
 Root      3 not converged, maximum delta is    0.000003739243472
 Root      4 not converged, maximum delta is    0.000017731096870
 Root      5 not converged, maximum delta is    0.000004212390426
 Root      6 not converged, maximum delta is    0.000128977683278
 Root      7 not converged, maximum delta is    0.000034227984633
 Root      8 not converged, maximum delta is    0.000141841569283
 Root      9 not converged, maximum delta is    0.005057342050780
 Root     10 not converged, maximum delta is    0.000654489903814
 Excitation Energies [eV] at current iteration:
 Root      1 :     3.028637733403136   Change is   -0.000000000060828
 Root      2 :     4.283225454922195   Change is   -0.000000000742208
 Root      3 :     4.707101083560042   Change is   -0.000000003766986
 Root      4 :     4.713326305773091   Change is   -0.000000020092511
 Root      5 :     4.774121410929506   Change is   -0.000000001108395
 Root      6 :     4.884096832265517   Change is   -0.000000309116464
 Root      7 :     5.018535780304751   Change is   -0.000000177758720
 Root      8 :     5.061211138619846   Change is   -0.000000500989545
 Root      9 :     5.179303912584259   Change is   -0.001971246982498
 Root     10 :     5.297959510800255   Change is   -0.000057173194270
 Iteration     3 Dimension    78 NMult   260 NNew     18
 CISAX will form    18 AO SS matrices at one time.
 NMat=    18 NSing=    18 JSym2X= 0.
 Root      1 has converged.
 Root      2 has converged.
 Root      3 not converged, maximum delta is    0.000002621829968
 Root      4 not converged, maximum delta is    0.000012912013025
 Root      5 not converged, maximum delta is    0.000002606894324
 Root      6 not converged, maximum delta is    0.000094743609655
 Root      7 not converged, maximum delta is    0.000028012181577
 Root      8 not converged, maximum delta is    0.000085326662515
 Root      9 not converged, maximum delta is    0.005031631856283
 Root     10 not converged, maximum delta is    0.000551832562822
 Excitation Energies [eV] at current iteration:
 Root      1 :     3.028637733396676   Change is   -0.000000000006460
 Root      2 :     4.283225454862677   Change is   -0.000000000059517
 Root      3 :     4.707101082751660   Change is   -0.000000000808383
 Root      4 :     4.713326301272345   Change is   -0.000000004500745
 Root      5 :     4.774121410714934   Change is   -0.000000000214572
 Root      6 :     4.884096707594864   Change is   -0.000000124670653
 Root      7 :     5.018535741737476   Change is   -0.000000038567275
 Root      8 :     5.061210997710033   Change is   -0.000000140909814
 Root      9 :     5.178771248036245   Change is   -0.000532664548014
 Root     10 :     5.297942462323001   Change is   -0.000017048477255
 Iteration     4 Dimension    94 NMult   278 NNew     16
 CISAX will form    16 AO SS matrices at one time.
 NMat=    16 NSing=    16 JSym2X= 0.
 Root      1 has converged.
 Root      2 has converged.
 Root      3 not converged, maximum delta is    0.000001470643465
 Root      4 not converged, maximum delta is    0.000005134028540
 Root      5 has converged.
 Root      6 not converged, maximum delta is    0.000046733413769
 Root      7 not converged, maximum delta is    0.000018575242887
 Root      8 not converged, maximum delta is    0.000046366681061
 Root      9 not converged, maximum delta is    0.003842741134545
 Root     10 not converged, maximum delta is    0.000526979511505
 Excitation Energies [eV] at current iteration:
 Root      1 :     3.028637733436604   Change is    0.000000000039928
 Root      2 :     4.283225454876957   Change is    0.000000000014280
 Root      3 :     4.707101082595543   Change is   -0.000000000156115
 Root      4 :     4.713326300378172   Change is   -0.000000000894173
 Root      5 :     4.774121410671301   Change is   -0.000000000043633
 Root      6 :     4.884096667609781   Change is   -0.000000039985082
 Root      7 :     5.018535732630665   Change is   -0.000000009106811
 Root      8 :     5.061210953073428   Change is   -0.000000044636605
 Root      9 :     5.178578430716166   Change is   -0.000192817320079
 Root     10 :     5.297937911797639   Change is   -0.000004550525362
 Iteration     5 Dimension   108 NMult   294 NNew     14
 CISAX will form    14 AO SS matrices at one time.
 NMat=    14 NSing=    14 JSym2X= 0.
 Root      1 has converged.
 Root      2 has converged.
 Root      3 has converged.
 Root      4 not converged, maximum delta is    0.000002284177806
 Root      5 has converged.
 Root      6 not converged, maximum delta is    0.000010338122706
 Root      7 not converged, maximum delta is    0.000011233149222
 Root      8 not converged, maximum delta is    0.000030018818580
 Root      9 not converged, maximum delta is    0.002673019856222
 Root     10 not converged, maximum delta is    0.000210513651432
 Excitation Energies [eV] at current iteration:
 Root      1 :     3.028637733413125   Change is   -0.000000000023479
 Root      2 :     4.283225454867399   Change is   -0.000000000009559
 Root      3 :     4.707101082545787   Change is   -0.000000000049757
 Root      4 :     4.713326300181030   Change is   -0.000000000197141
 Root      5 :     4.774121410672264   Change is    0.000000000000964
 Root      6 :     4.884096659910639   Change is   -0.000000007699143
 Root      7 :     5.018535730350068   Change is   -0.000000002280597
 Root      8 :     5.061210938148019   Change is   -0.000000014925409
 Root      9 :     5.178509205197825   Change is   -0.000069225518341
 Root     10 :     5.297936351354378   Change is   -0.000001560443261
 Iteration     6 Dimension   120 NMult   308 NNew     12
 CISAX will form    12 AO SS matrices at one time.
 NMat=    12 NSing=    12 JSym2X= 0.
 Root      1 has converged.
 Root      2 has converged.
 Root      3 has converged.
 Root      4 not converged, maximum delta is    0.000001768721006
 Root      5 has converged.
 Root      6 not converged, maximum delta is    0.000004674849924
 Root      7 not converged, maximum delta is    0.000008843188506
 Root      8 not converged, maximum delta is    0.000026631337560
 Root      9 not converged, maximum delta is    0.002565767398641
 Root     10 not converged, maximum delta is    0.000277588480001
 Excitation Energies [eV] at current iteration:
 Root      1 :     3.028637733426859   Change is    0.000000000013735
 Root      2 :     4.283225454863176   Change is   -0.000000000004222
 Root      3 :     4.707101082534104   Change is   -0.000000000011683
 Root      4 :     4.713326300120212   Change is   -0.000000000060819
 Root      5 :     4.774121410672678   Change is    0.000000000000414
 Root      6 :     4.884096658583798   Change is   -0.000000001326841
 Root      7 :     5.018535729501938   Change is   -0.000000000848131
 Root      8 :     5.061210932588206   Change is   -0.000000005559813
 Root      9 :     5.178474329446344   Change is   -0.000034875751481
 Root     10 :     5.297935583030255   Change is   -0.000000768324123
 Iteration     7 Dimension   132 NMult   320 NNew     12
 CISAX will form    12 AO SS matrices at one time.
 NMat=    12 NSing=    12 JSym2X= 0.
 Root      1 has converged.
 Root      2 has converged.
 Root      3 has converged.
 Root      4 has converged.
 Root      5 has converged.
 Root      6 not converged, maximum delta is    0.000002751361305
 Root      7 not converged, maximum delta is    0.000004841645307
 Root      8 not converged, maximum delta is    0.000014960290855
 Root      9 not converged, maximum delta is    0.001762208211680
 Root     10 not converged, maximum delta is    0.000341022164570
 Excitation Energies [eV] at current iteration:
 Root      1 :     3.028637733400259   Change is   -0.000000000026601
 Root      2 :     4.283225454866861   Change is    0.000000000003685
 Root      3 :     4.707101082538854   Change is    0.000000000004750
 Root      4 :     4.713326300098044   Change is   -0.000000000022168
 Root      5 :     4.774121410673505   Change is    0.000000000000826
 Root      6 :     4.884096658346825   Change is   -0.000000000236974
 Root      7 :     5.018535729157434   Change is   -0.000000000344504
 Root      8 :     5.061210930509341   Change is   -0.000000002078865
 Root      9 :     5.178456211564262   Change is   -0.000018117882082
 Root     10 :     5.297935079631318   Change is   -0.000000503398936
 Iteration     8 Dimension   142 NMult   332 NNew     10
 CISAX will form    10 AO SS matrices at one time.
 NMat=    10 NSing=    10 JSym2X= 0.
 Root      1 has converged.
 Root      2 has converged.
 Root      3 has converged.
 Root      4 has converged.
 Root      5 has converged.
 Root      6 not converged, maximum delta is    0.000001624397375
 Root      7 not converged, maximum delta is    0.000002861980632
 Root      8 not converged, maximum delta is    0.000004780119455
 Root      9 not converged, maximum delta is    0.000875434141693
 Root     10 not converged, maximum delta is    0.000390712466671
 Excitation Energies [eV] at current iteration:
 Root      1 :     3.028637733401833   Change is    0.000000000001574
 Root      2 :     4.283225454861776   Change is   -0.000000000005086
 Root      3 :     4.707101082543883   Change is    0.000000000005030
 Root      4 :     4.713326300095932   Change is   -0.000000000002111
 Root      5 :     4.774121410672799   Change is   -0.000000000000706
 Root      6 :     4.884096658295589   Change is   -0.000000000051235
 Root      7 :     5.018535729059034   Change is   -0.000000000098399
 Root      8 :     5.061210930012657   Change is   -0.000000000496684
 Root      9 :     5.178449879988698   Change is   -0.000006331575564
 Root     10 :     5.297934709057162   Change is   -0.000000370574156
 Iteration     9 Dimension   152 NMult   342 NNew     10
 CISAX will form    10 AO SS matrices at one time.
 NMat=    10 NSing=    10 JSym2X= 0.
 Root      1 has converged.
 Root      2 has converged.
 Root      3 has converged.
 Root      4 has converged.
 Root      5 has converged.
 Root      6 has converged.
 Root      7 not converged, maximum delta is    0.000001723154352
 Root      8 not converged, maximum delta is    0.000002117455825
 Root      9 not converged, maximum delta is    0.000505915379051
 Root     10 not converged, maximum delta is    0.000353155848507
 Excitation Energies [eV] at current iteration:
 Root      1 :     3.028637733352921   Change is   -0.000000000048913
 Root      2 :     4.283225454870585   Change is    0.000000000008809
 Root      3 :     4.707101082545507   Change is    0.000000000001624
 Root      4 :     4.713326300097450   Change is    0.000000000001517
 Root      5 :     4.774121410671990   Change is   -0.000000000000809
 Root      6 :     4.884096658278438   Change is   -0.000000000017151
 Root      7 :     5.018535729025028   Change is   -0.000000000034007
 Root      8 :     5.061210929927074   Change is   -0.000000000085583
 Root      9 :     5.178448133215159   Change is   -0.000001746773539
 Root     10 :     5.297934466282745   Change is   -0.000000242774417
 Iteration    10 Dimension   160 NMult   352 NNew      8
 CISAX will form     8 AO SS matrices at one time.
 NMat=     8 NSing=     8 JSym2X= 0.
 Root      1 has converged.
 Root      2 has converged.
 Root      3 has converged.
 Root      4 has converged.
 Root      5 has converged.
 Root      6 has converged.
 Root      7 has converged.
 Root      8 has converged.
 Root      9 not converged, maximum delta is    0.000267321415521
 Root     10 not converged, maximum delta is    0.000219142050519
 Excitation Energies [eV] at current iteration:
 Root      1 :     3.028637733359028   Change is    0.000000000006107
 Root      2 :     4.283225454872197   Change is    0.000000000001612
 Root      3 :     4.707101082547883   Change is    0.000000000002375
 Root      4 :     4.713326300098096   Change is    0.000000000000646
 Root      5 :     4.774121410672024   Change is    0.000000000000034
 Root      6 :     4.884096658275828   Change is   -0.000000000002609
 Root      7 :     5.018535729011154   Change is   -0.000000000013874
 Root      8 :     5.061210929909143   Change is   -0.000000000017932
 Root      9 :     5.178447606083385   Change is   -0.000000527131774
 Root     10 :     5.297934347809179   Change is   -0.000000118473565
 Iteration    11 Dimension   164 NMult   360 NNew      4
 CISAX will form     4 AO SS matrices at one time.
 NMat=     4 NSing=     4 JSym2X= 0.
 Root      1 has converged.
 Root      2 has converged.
 Root      3 has converged.
 Root      4 has converged.
 Root      5 has converged.
 Root      6 has converged.
 Root      7 has converged.
 Root      8 has converged.
 Root      9 not converged, maximum delta is    0.000179212555535
 Root     10 not converged, maximum delta is    0.000144283360085
 Excitation Energies [eV] at current iteration:
 Root      1 :     3.028637733365624   Change is    0.000000000006596
 Root      2 :     4.283225454872811   Change is    0.000000000000615
 Root      3 :     4.707101082544372   Change is   -0.000000000003510
 Root      4 :     4.713326300098758   Change is    0.000000000000662
 Root      5 :     4.774121410672609   Change is    0.000000000000585
 Root      6 :     4.884096658269988   Change is   -0.000000000005840
 Root      7 :     5.018535729010105   Change is   -0.000000000001048
 Root      8 :     5.061210929906901   Change is   -0.000000000002242
 Root      9 :     5.178447368113768   Change is   -0.000000237969617
 Root     10 :     5.297934288246479   Change is   -0.000000059562701
 Iteration    12 Dimension   168 NMult   364 NNew      4
 CISAX will form     4 AO SS matrices at one time.
 NMat=     4 NSing=     4 JSym2X= 0.
 Root      1 has converged.
 Root      2 has converged.
 Root      3 has converged.
 Root      4 has converged.
 Root      5 has converged.
 Root      6 has converged.
 Root      7 has converged.
 Root      8 has converged.
 Root      9 not converged, maximum delta is    0.000121835447830
 Root     10 not converged, maximum delta is    0.000114552820138
 Excitation Energies [eV] at current iteration:
 Root      1 :     3.028637733387610   Change is    0.000000000021986
 Root      2 :     4.283225454867399   Change is   -0.000000000005413
 Root      3 :     4.707101082546242   Change is    0.000000000001869
 Root      4 :     4.713326300099770   Change is    0.000000000001012
 Root      5 :     4.774121410671559   Change is   -0.000000000001050
 Root      6 :     4.884096658271553   Change is    0.000000000001566
 Root      7 :     5.018535729001766   Change is   -0.000000000008338
 Root      8 :     5.061210929905342   Change is   -0.000000000001559
 Root      9 :     5.178447248352362   Change is   -0.000000119761406
 Root     10 :     5.297934250819036   Change is   -0.000000037427443
 Iteration    13 Dimension   172 NMult   368 NNew      4
 CISAX will form     4 AO SS matrices at one time.
 NMat=     4 NSing=     4 JSym2X= 0.
 Root      1 has converged.
 Root      2 has converged.
 Root      3 has converged.
 Root      4 has converged.
 Root      5 has converged.
 Root      6 has converged.
 Root      7 has converged.
 Root      8 has converged.
 Root      9 not converged, maximum delta is    0.000056065755257
 Root     10 not converged, maximum delta is    0.000067786320286
 Excitation Energies [eV] at current iteration:
 Root      1 :     3.028637733378544   Change is   -0.000000000009066
 Root      2 :     4.283225454862102   Change is   -0.000000000005297
 Root      3 :     4.707101082552563   Change is    0.000000000006322
 Root      4 :     4.713326300099369   Change is   -0.000000000000401
 Root      5 :     4.774121410671180   Change is   -0.000000000000379
 Root      6 :     4.884096658269601   Change is   -0.000000000001952
 Root      7 :     5.018535729004650   Change is    0.000000000002883
 Root      8 :     5.061210929905699   Change is    0.000000000000357
 Root      9 :     5.178447205044923   Change is   -0.000000043307440
 Root     10 :     5.297934231872313   Change is   -0.000000018946723
 Iteration    14 Dimension   176 NMult   372 NNew      4
 CISAX will form     4 AO SS matrices at one time.
 NMat=     4 NSing=     4 JSym2X= 0.
 Root      1 has converged.
 Root      2 has converged.
 Root      3 has converged.
 Root      4 has converged.
 Root      5 has converged.
 Root      6 has converged.
 Root      7 has converged.
 Root      8 has converged.
 Root      9 not converged, maximum delta is    0.000021288569606
 Root     10 not converged, maximum delta is    0.000026195436107
 Excitation Energies [eV] at current iteration:
 Root      1 :     3.028637733377567   Change is   -0.000000000000977
 Root      2 :     4.283225454864808   Change is    0.000000000002706
 Root      3 :     4.707101082556388   Change is    0.000000000003825
 Root      4 :     4.713326300098636   Change is   -0.000000000000733
 Root      5 :     4.774121410669992   Change is   -0.000000000001188
 Root      6 :     4.884096658270106   Change is    0.000000000000505
 Root      7 :     5.018535729004158   Change is   -0.000000000000491
 Root      8 :     5.061210929905131   Change is   -0.000000000000569
 Root      9 :     5.178447192421746   Change is   -0.000000012623176
 Root     10 :     5.297934225085936   Change is   -0.000000006786377
 Iteration    15 Dimension   180 NMult   376 NNew      4
 CISAX will form     4 AO SS matrices at one time.
 NMat=     4 NSing=     4 JSym2X= 0.
 Root      1 has converged.
 Root      2 has converged.
 Root      3 has converged.
 Root      4 has converged.
 Root      5 has converged.
 Root      6 has converged.
 Root      7 has converged.
 Root      8 has converged.
 Root      9 not converged, maximum delta is    0.000012070074098
 Root     10 not converged, maximum delta is    0.000006233888594
 Excitation Energies [eV] at current iteration:
 Root      1 :     3.028637733378544   Change is    0.000000000000977
 Root      2 :     4.283225454862869   Change is   -0.000000000001939
 Root      3 :     4.707101082561069   Change is    0.000000000004681
 Root      4 :     4.713326300098723   Change is    0.000000000000087
 Root      5 :     4.774121410670165   Change is    0.000000000000172
 Root      6 :     4.884096658269786   Change is   -0.000000000000319
 Root      7 :     5.018535728998688   Change is   -0.000000000005471
 Root      8 :     5.061210929906446   Change is    0.000000000001316
 Root      9 :     5.178447189408732   Change is   -0.000000003013015
 Root     10 :     5.297934223577368   Change is   -0.000000001508569
[...]
    26  H    0.000000  -0.013022  -0.001866  -0.103947   0.000269   0.537540
    27  H    0.002624   0.000003   0.171467  -0.004288  -0.228438  -0.008605
    28  H    0.000003   0.002619  -0.002455   0.164260  -0.008856  -0.224944
    29  H    0.000095   0.000091  -0.014961  -0.014267   0.006349   0.003245
    30  H   -0.000004  -0.000004   0.000629   0.000281   0.000070   0.001309
    31  H    0.000000   0.000000  -0.000229  -0.000125  -0.000221  -0.000742
    32  H   -0.000001  -0.000001  -0.000465  -0.000414   0.002396   0.002496
    33  C    0.000357   0.000350   0.016340   0.013259  -0.015660  -0.000620
    34  O    0.000000   0.000000   0.001986   0.002467  -0.009009  -0.010453
    35  O   -0.000036  -0.000036   0.006536   0.005943   0.013978   0.013298
               7          8          9         10         11         12
     1  O   -0.011226   0.000306  -0.036864   0.000998   0.112196   0.009209
     2  O    0.000298  -0.011573   0.000951  -0.037911   0.009334   0.112720
     3  C    5.812258  -0.678134  -0.883467  -2.951517  -4.972133   0.181632
     4  C   -0.664258   5.835546  -2.911569  -0.823525   0.095853  -5.120690
     5  C   -3.469542  -0.220646  -2.851202   0.441349   2.684098  -0.113859
     6  C   -0.230608  -3.438573   0.406077  -2.872649  -0.081874   2.752897
     7  C   13.654906  -1.546849   0.922305  -2.398453  -2.056992  -0.976734
     8  C   -1.546849  13.704803  -2.466325   0.967232  -1.021514  -2.183207
     9  C    0.922305  -2.466325  12.348840  -1.439654   0.138492  -0.499491
    10  C   -2.398453   0.967232  -1.439654  12.304581  -0.571596  -0.040053
    11  C   -2.056992  -1.021514   0.138492  -0.571596  12.536227   0.749456
    12  C   -0.976734  -2.183207  -0.499491  -0.040053   0.749456  12.699696
    13  C   -0.063917  -0.047538   0.072329  -0.010940  -0.851487  -0.022223
    14  C   -0.048211  -0.061518  -0.005731   0.091626  -0.020679  -0.851627
    15  O   -0.013440  -0.014263   0.033800   0.032076   0.034897   0.036854
    16  C   -2.867231  -2.925593   2.664475   2.668275  -0.022276   0.003976
    17  C   -0.060672   0.037896   0.227707   0.410831  -0.082106  -0.084122
    18  C    0.160651   0.184524  -0.156227  -0.221003  -0.484170  -0.458595
    19  C   -0.083051  -0.062925  -0.003143  -0.042110   0.226563   0.226787
    20  C   -0.007034  -0.017847   0.101936   0.127514  -0.043535  -0.044362
    21  C    0.064057   0.086191  -0.222808  -0.230061  -0.235718  -0.224669
    22  C    0.111964   0.098298   0.317423   0.384137  -0.423294  -0.435860
    23  H    0.077344  -0.007689   0.020979  -0.040733  -0.092442  -0.012006
    24  H   -0.007061   0.075768  -0.039376   0.021340  -0.013323  -0.089707
    25  H   -0.132295   0.000410   0.065643   0.006208   0.034834  -0.006633
    26  H    0.000165  -0.125492   0.004923   0.063762  -0.006990   0.033411
    27  H    0.633535  -0.028707   0.032178  -0.084200  -0.030567  -0.014829
    28  H   -0.026162   0.621800  -0.076956   0.024662  -0.013490  -0.032748
    29  H    0.005623   0.001628   0.018302   0.019037  -0.035607  -0.037129
    30  H   -0.001948  -0.001546  -0.001855  -0.003834   0.005760   0.005650
    31  H    0.000015  -0.000213  -0.000049   0.000919  -0.000577  -0.000526
    32  H    0.000172   0.000674  -0.004025  -0.003989  -0.000341  -0.000249
    33  C   -0.072331  -0.060522  -0.087150  -0.098914   0.191707   0.195056
    34  O    0.004550   0.006374   0.010631   0.011994  -0.006930  -0.006722
    35  O   -0.012291  -0.012493  -0.003770   0.000768   0.057024   0.058988
              13         14         15         16         17         18
     1  O    0.446611  -0.000022  -0.003059   0.008672  -0.000086  -0.000399
     2  O   -0.000019   0.447670  -0.003064   0.008531  -0.000210  -0.000415
     3  C    0.630740  -0.005338  -0.394009  -3.274960  -0.109812  -0.094418
     4  C   -0.005189   0.600332  -0.395738  -3.266957  -0.004084  -0.113173
     5  C   -0.144434  -0.011726   0.010853  -0.147192  -0.420302   0.148863
     6  C   -0.011202  -0.158058   0.010361  -0.184302  -0.497664   0.192336
     7  C   -0.063917  -0.048211  -0.013440  -2.867231  -0.060672   0.160651
     8  C   -0.047538  -0.061518  -0.014263  -2.925593   0.037896   0.184524
     9  C    0.072329  -0.005731   0.033800   2.664475   0.227707  -0.156227
    10  C   -0.010940   0.091626   0.032076   2.668275   0.410831  -0.221003
    11  C   -0.851487  -0.020679   0.034897  -0.022276  -0.082106  -0.484170
    12  C   -0.022223  -0.851627   0.036854   0.003976  -0.084122  -0.458595
    13  C    7.105062  -0.013501   0.008220  -0.514130   0.035934  -0.045159
    14  C   -0.013501   7.098760   0.008779  -0.498047   0.041788  -0.042829
    15  O    0.008220   0.008779   8.478533   0.339307  -0.016828   0.000834
    16  C   -0.514130  -0.498047   0.339307  14.439656   1.315490  -1.659465
    17  C    0.035934   0.041788  -0.016828   1.315490   9.424872  -1.605967
    18  C   -0.045159  -0.042829   0.000834  -1.659465  -1.605967  10.434651
    19  C   -0.016446  -0.014546  -0.012228  -0.309808  -2.111812  -1.054304
    20  C   -0.002467  -0.003341   0.002274   0.332351   1.720566  -1.109988
    21  C    0.001264   0.000900   0.003508  -1.351169  -2.926974   3.324686
    22  C   -0.012037  -0.013316   0.026594   0.051553   0.922551  -1.018217
    23  H   -0.090850   0.004363  -0.023500  -0.030510  -0.002111   0.001560
    24  H    0.004473  -0.092760  -0.023599  -0.029926  -0.000986   0.001137
    25  H   -0.100464   0.000028   0.000713   0.038489  -0.004108   0.001767
    26  H    0.000010  -0.100851   0.000730   0.035219  -0.005080   0.002340
    27  H    0.030862   0.000060  -0.001478  -0.135898   0.032094   0.009544
    28  H    0.000136   0.030588  -0.001531  -0.126337   0.036621   0.007247
    29  H    0.000581   0.000110   0.001446  -0.044552  -0.028369   0.533476
    30  H   -0.000114  -0.000037  -0.000272  -0.002454  -0.014461  -0.079508
    31  H    0.000055   0.000032   0.000023   0.011905   0.019094  -0.016379
    32  H    0.000079   0.000135   0.000010  -0.009869   0.010860   0.032439
    33  C   -0.000782  -0.000676  -0.012989   0.391757  -0.610860  -0.400831
    34  O   -0.000121  -0.000220   0.000009  -0.050014   0.043313   0.006797
    35  O    0.007376   0.007302  -0.006447  -0.075320  -0.015644  -0.069174
              19         20         21         22         23         24
     1  O   -0.000178   0.000003  -0.000002  -0.000522  -0.010413   0.000048
     2  O   -0.000174   0.000001  -0.000008  -0.000522   0.000048  -0.010392
     3  C    0.027294  -0.004122  -0.050024  -0.132796   0.615641  -0.002225
     4  C    0.019710  -0.000719  -0.051227  -0.114397  -0.003771   0.611290
     5  C    0.077247  -0.039319   0.140054   0.024528  -0.085918   0.003271
     6  C    0.109441  -0.055618   0.156399  -0.027749   0.003342  -0.084866
     7  C   -0.083051  -0.007034   0.064057   0.111964   0.077344  -0.007061
     8  C   -0.062925  -0.017847   0.086191   0.098298  -0.007689   0.075768
     9  C   -0.003143   0.101936  -0.222808   0.317423   0.020979  -0.039376
    10  C   -0.042110   0.127514  -0.230061   0.384137  -0.040733   0.021340
    11  C    0.226563  -0.043535  -0.235718  -0.423294  -0.092442  -0.013323
    12  C    0.226787  -0.044362  -0.224669  -0.435860  -0.012006  -0.089707
    13  C   -0.016446  -0.002467   0.001264  -0.012037  -0.090850   0.004473
    14  C   -0.014546  -0.003341   0.000900  -0.013316   0.004363  -0.092760
    15  O   -0.012228   0.002274   0.003508   0.026594  -0.023500  -0.023599
    16  C   -0.309808   0.332351  -1.351169   0.051553  -0.030510  -0.029926
    17  C   -2.111812   1.720566  -2.926974   0.922551  -0.002111  -0.000986
    18  C   -1.054304  -1.109988   3.324686  -1.018217   0.001560   0.001137
    19  C    9.153862  -0.407648  -0.808760   0.853659   0.000654   0.000629
    20  C   -0.407648   8.404308  -2.037853  -0.744621  -0.000193  -0.000193
    21  C   -0.808760  -2.037853  12.135288  -1.666888  -0.000093  -0.000134
    22  C    0.853659  -0.744621  -1.666888   9.142760  -0.001896  -0.001904
    23  H    0.000654  -0.000193  -0.000093  -0.001896   0.463706  -0.002957
    24  H    0.000629  -0.000193  -0.000134  -0.001904  -0.002957   0.463846
    25  H    0.002847   0.000650   0.000352   0.002725  -0.002333  -0.000007
    26  H    0.002718   0.000719   0.000686   0.002653  -0.000006  -0.002306
    27  H   -0.032840   0.014454   0.008335  -0.006487   0.002935  -0.000268
    28  H   -0.032793   0.014154   0.009172  -0.006656  -0.000270   0.002895
    29  H   -0.177357  -0.007678   0.081550   0.010491  -0.000087  -0.000086
    30  H    0.480042  -0.051322  -0.013607   0.017704   0.000005   0.000005
    31  H   -0.029140   0.443901  -0.118601   0.029154  -0.000003  -0.000003
    32  H   -0.007999  -0.035661   0.444641  -0.063820  -0.000002  -0.000002
    33  C    0.447348  -0.232197  -0.240017  -1.149780   0.000337   0.000479
    34  O   -0.013377   0.118341  -0.039683  -0.115358   0.000020   0.000019
    35  O   -0.011653   0.026071  -0.047880  -0.111316   0.000061   0.000083
              25         26         27         28         29         30
     1  O   -0.013044   0.000000   0.002624   0.000003   0.000095  -0.000004
     2  O    0.000000  -0.013022   0.000003   0.002619   0.000091  -0.000004
     3  C   -0.107203  -0.001866   0.171467  -0.002455  -0.014961   0.000629
     4  C   -0.001544  -0.103947  -0.004288   0.164260  -0.014267   0.000281
     5  C    0.538602   0.000269  -0.228438  -0.008856   0.006349   0.000070
     6  C    0.000249   0.537540  -0.008605  -0.224944   0.003245   0.001309
     7  C   -0.132295   0.000165   0.633535  -0.026162   0.005623  -0.001948
     8  C    0.000410  -0.125492  -0.028707   0.621800   0.001628  -0.001546
     9  C    0.065643   0.004923   0.032178  -0.076956   0.018302  -0.001855
    10  C    0.006208   0.063762  -0.084200   0.024662   0.019037  -0.003834
    11  C    0.034834  -0.006990  -0.030567  -0.013490  -0.035607   0.005760
    12  C   -0.006633   0.033411  -0.014829  -0.032748  -0.037129   0.005650
    13  C   -0.100464   0.000010   0.030862   0.000136   0.000581  -0.000114
    14  C    0.000028  -0.100851   0.000060   0.030588   0.000110  -0.000037
    15  O    0.000713   0.000730  -0.001478  -0.001531   0.001446  -0.000272
    16  C    0.038489   0.035219  -0.135898  -0.126337  -0.044552  -0.002454
    17  C   -0.004108  -0.005080   0.032094   0.036621  -0.028369  -0.014461
    18  C    0.001767   0.002340   0.009544   0.007247   0.533476  -0.079508
    19  C    0.002847   0.002718  -0.032840  -0.032793  -0.177357   0.480042
    20  C    0.000650   0.000719   0.014454   0.014154  -0.007678  -0.051322
    21  C    0.000352   0.000686   0.008335   0.009172   0.081550  -0.013607
    22  C    0.002725   0.002653  -0.006487  -0.006656   0.010491   0.017704
    23  H   -0.002333  -0.000006   0.002935  -0.000270  -0.000087   0.000005
    24  H   -0.000007  -0.002306  -0.000268   0.002895  -0.000086   0.000005
    25  H    0.466668  -0.000005  -0.019312  -0.000076  -0.000142   0.000014
    26  H   -0.000005   0.466622  -0.000080  -0.019024  -0.000112   0.000011
    27  H   -0.019312  -0.000080   0.493679   0.000422   0.002106  -0.000557
    28  H   -0.000076  -0.019024   0.000422   0.492357   0.001938  -0.000580
    29  H   -0.000142  -0.000112   0.002106   0.001938   0.474137  -0.009530
    30  H    0.000014   0.000011  -0.000557  -0.000580  -0.009530   0.450662
    31  H    0.000028   0.000029  -0.000575  -0.000578   0.000213  -0.006552
    32  H    0.000048   0.000039  -0.000326  -0.000270   0.000436   0.000318
    33  C    0.000111   0.000022  -0.024484  -0.023263  -0.009726   0.001957
    34  O   -0.000193  -0.000192   0.002364   0.002394   0.000484  -0.000326
    35  O   -0.000618  -0.000717   0.006182   0.007125  -0.000341  -0.000241
              31         32         33         34         35
     1  O    0.000000  -0.000001   0.000357   0.000000  -0.000036
     2  O    0.000000  -0.000001   0.000350   0.000000  -0.000036
     3  C   -0.000229  -0.000465   0.016340   0.001986   0.006536
     4  C   -0.000125  -0.000414   0.013259   0.002467   0.005943
     5  C   -0.000221   0.002396  -0.015660  -0.009009   0.013978
     6  C   -0.000742   0.002496  -0.000620  -0.010453   0.013298
     7  C    0.000015   0.000172  -0.072331   0.004550  -0.012291
     8  C   -0.000213   0.000674  -0.060522   0.006374  -0.012493
     9  C   -0.000049  -0.004025  -0.087150   0.010631  -0.003770
    10  C    0.000919  -0.003989  -0.098914   0.011994   0.000768
    11  C   -0.000577  -0.000341   0.191707  -0.006930   0.057024
    12  C   -0.000526  -0.000249   0.195056  -0.006722   0.058988
    13  C    0.000055   0.000079  -0.000782  -0.000121   0.007376
    14  C    0.000032   0.000135  -0.000676  -0.000220   0.007302
    15  O    0.000023   0.000010  -0.012989   0.000009  -0.006447
    16  C    0.011905  -0.009869   0.391757  -0.050014  -0.075320
    17  C    0.019094   0.010860  -0.610860   0.043313  -0.015644
    18  C   -0.016379   0.032439  -0.400831   0.006797  -0.069174
    19  C   -0.029140  -0.007999   0.447348  -0.013377  -0.011653
    20  C    0.443901  -0.035661  -0.232197   0.118341   0.026071
    21  C   -0.118601   0.444641  -0.240017  -0.039683  -0.047880
    22  C    0.029154  -0.063820  -1.149780  -0.115358  -0.111316
    23  H   -0.000003  -0.000002   0.000337   0.000020   0.000061
    24  H   -0.000003  -0.000002   0.000479   0.000019   0.000083
    25  H    0.000028   0.000048   0.000111  -0.000193  -0.000618
    26  H    0.000029   0.000039   0.000022  -0.000192  -0.000717
    27  H   -0.000575  -0.000326  -0.024484   0.002364   0.006182
    28  H   -0.000578  -0.000270  -0.023263   0.002394   0.007125
    29  H    0.000213   0.000436  -0.009726   0.000484  -0.000341
    30  H   -0.006552   0.000318   0.001957  -0.000326  -0.000241
    31  H    0.458049  -0.007828   0.010247   0.001420   0.000116
    32  H   -0.007828   0.434131  -0.045990   0.003643   0.000401
    33  C    0.010247  -0.045990   7.152981   0.257871   0.252729
    34  O    0.001420   0.003643   0.257871   8.492089  -0.146377
    35  O    0.000116   0.000401   0.252729  -0.146377   8.554254
 Mulliken charges:
               1
     1  O   -0.533498
     2  O   -0.533512
     3  C   -0.457737
     4  C   -0.452963
     5  C   -0.048315
     6  C   -0.034031
     7  C   -0.697535
     8  C   -0.688285
     9  C    0.302670
    10  C    0.293834
    11  C    0.191197
    12  C    0.189708
    13  C   -0.390714
    14  C   -0.389439
    15  O   -0.107375
    16  C    1.216356
    17  C    0.322641
    18  C   -0.412632
    19  C   -0.396511
    20  C   -0.461525
    21  C   -0.190907
    22  C    0.051243
    23  H    0.216789
    24  H    0.216799
    25  H    0.227593
    26  H    0.227822
    27  H    0.179096
    28  H    0.178600
    29  H    0.218607
    30  H    0.224337
    31  H    0.207142
    32  H    0.248333
    33  C    0.153885
    34  O   -0.567792
    35  O   -0.503880
 Sum of Mulliken charges =  -2.00000
 Mulliken charges with hydrogens summed into heavy atoms:
               1
     1  O   -0.533498
     2  O   -0.533512
     3  C   -0.240948
     4  C   -0.236165
     5  C    0.179278
     6  C    0.193791
     7  C   -0.518439
     8  C   -0.509684
     9  C    0.302670
    10  C    0.293834
    11  C    0.191197
    12  C    0.189708
    13  C   -0.390714
    14  C   -0.389439
    15  O   -0.107375
    16  C    1.216356
    17  C    0.322641
    18  C   -0.194026
    19  C   -0.172174
    20  C   -0.254383
    21  C    0.057426
    22  C    0.051243
    33  C    0.153885
    34  O   -0.567792
    35  O   -0.503880
 Electronic spatial extent (au):  <R**2>=           7930.7694
 Charge=             -2.0000 electrons
 Dipole moment (field-independent basis, Debye):
    X=             -8.7976    Y=            -12.3904    Z=             -0.0805  Tot=             15.1963
 Quadrupole moment (field-independent basis, Debye-Ang):
   XX=           -204.1304   YY=           -193.2060   ZZ=           -265.0993
   XY=             33.7488   XZ=              0.4181   YZ=             -0.7418
 Traceless Quadrupole moment (field-independent basis, Debye-Ang):
   XX=             16.6815   YY=             27.6059   ZZ=            -44.2874
   XY=             33.7488   XZ=              0.4181   YZ=             -0.7418
 Octapole moment (field-independent basis, Debye-Ang**2):
  XXX=            -90.7149  YYY=           -142.7639  ZZZ=              0.7174  XYY=             78.1080
  XXY=            -59.4698  XXZ=             -1.1329  XZZ=           -347.3208  YZZ=             51.6487
  YYZ=             -1.2878  XYZ=             -0.1270
 Hexadecapole moment (field-independent basis, Debye-Ang**3):
 XXXX=          -5158.2094 YYYY=          -1763.2961 ZZZZ=          -7731.2202 XXXY=            544.5184
 XXXZ=              7.8116 YYYX=            607.5357 YYYZ=            -18.0582 ZZZX=              8.0054
 ZZZY=            -23.4711 XXYY=          -1268.7486 XXZZ=          -2703.1874 YYZZ=          -1096.7853
 XXYZ=            -11.5739 YYXZ=              7.5822 ZZXY=            212.1275
 N-N= 2.029888286667D+03 E-N=-6.772601312360D+03  KE= 1.139425972434D+03
 No NMR shielding tensors so no spin-rotation constants.
 Leave Link  601 at Mon Feb 17 10:16:52 2020, MaxMem=  6710886400 cpu:         9.8
 (Enter /opt/sys/apps/gaussian09/D.01/g09/l9999.exe)

 Test job not archived.
 1\1\GINC-S92P20\SP\RCAM-B3LYP TD-FC\6-311++G(d,p)\C20H10O5(2-)\SALVATO
 RE\17-Feb-2020\0\\#p CAM-B3LYP/6-311++G** nosym density=current geom=a
 llcheck EmpiricalDispersion=GD3 SCRF=(CPCM, solvent=water) IOP(10/74=1
 0) TD=(NSTATES=10,ROOT=1,NONEQ) iop(3/119=0810000000) iop(3/120=081000
 0000)\\dianion\\-2,1\O,0,2.7743145775,-0.3977127539,-4.7111833007\O,0,
 2.7750242857,-0.3631230763,4.7054263637\C,0,2.7121965878,-0.3724361637
 ,-2.3401940156\C,0,2.7125714277,-0.3549500181,2.3343372951\C,0,0.64455
 1554,-0.3356381542,-3.6545562696\C,0,0.6450864662,-0.3094547812,3.6487
 017646\C,0,-0.090631659,-0.3083566066,-2.5048822864\C,0,-0.0902656211,
 -0.2905996297,2.4989746535\C,0,0.5239265848,-0.3134028957,-1.216745222
 8\C,0,0.524152621,-0.3040294577,1.2107973654\C,0,1.9500648197,-0.34365
 49179,-1.1972376326\C,0,1.9502957151,-0.3344905314,1.1913078539\C,0,2.
 0995685362,-0.3703847781,-3.6407161213\C,0,2.1001147686,-0.3435976882,
 3.6349001815\O,0,2.6223881618,-0.3442346629,-0.0030009749\C,0,-0.18221
 79457,-0.2619554319,-0.003112786\C,0,-1.6747246279,-0.3296890246,-0.00
 21195334\C,0,-2.2368198462,-1.6138303395,-0.0100607076\C,0,-3.61690211
 32,-1.7945558573,-0.0070353473\C,0,-4.4554296685,-0.6802390467,0.00483
 4707\C,0,-3.9013400333,0.5960467203,0.0134557078\C,0,-2.5147775489,0.7
 983438921,0.0096316158\H,0,3.7930832153,-0.3968033342,-2.2664010297\H,
 0,3.7934464957,-0.3799712384,2.2605957847\H,0,0.1578692956,-0.33160990
 67,-4.6240816189\H,0,0.1585163816,-0.2992258524,4.6182370298\H,0,-1.17
 31616078,-0.2801691578,-2.5532089175\H,0,-1.1728073351,-0.2630113004,2
 .547282021\H,0,-1.5786591732,-2.4758438977,-0.0183254697\H,0,-4.031073
 5778,-2.7965091064,-0.0136121315\H,0,-5.5325152426,-0.8061559528,0.007
 4001752\H,0,-4.537568835,1.4719963787,0.0234605325\C,0,-1.9683400165,2
 .2350739822,0.0164455926\O,0,-2.8184849798,3.1643090272,0.0469653142\O
 ,0,-0.7182584096,2.364318175,-0.0099078371\\Version=ES64L-G09RevD.01\H
 F=-1143.5496565\RMSD=9.027e-09\Dipole=-3.5114223,-4.9049815,-0.0288123
 \Quadrupole=12.4023104,20.5243013,-32.9266117,25.0913776,0.3108535,-0.
 5514871\PG=C01 [X(C20H10O5)]\\@


 THE REAL VOYAGE OF DISCOVERY CONSISTS NOT IN SEEKING NEW LANDSCAPES 
 BUT IN HAVING NEW EYES.
                                                    -- MARCEL PROUST
 Job cpu time:       0 days 19 hours 31 minutes 55.7 seconds.
 File lengths (MBytes):  RWF=   1122 Int=      0 D2E=      0 Chk=    268 Scr=      1
 Normal termination of Gaussian 09 at Mon Feb 17 10:16:53 2020.
