 Entering Gaussian System, Link 0=g09
 Initial command:
 /opt/sys/apps/gaussian09/D.01/g09/l1.exe "/tmp/Gau-8586.inp" -scrdir="/tmp/"
 Entering Link 1 = /opt/sys/apps/gaussian09/D.01/g09/l1.exe PID=      8587.
  
 Copyright (c) 1988,1990,1992,1993,1995,1998,2003,2009,2013,
            Gaussian, Inc.  All Rights Reserved.
  
 This is part of the Gaussian(R) 09 program.  It is based on
 the Gaussian(R) 03 system (copyright 2003, Gaussian, Inc.),
 the Gaussian(R) 98 system (copyright 1998, Gaussian, Inc.),
 the Gaussian(R) 94 system (copyright 1995, Gaussian, Inc.),
 the Gaussian 92(TM) system (copyright 1992, Gaussian, Inc.),
 the Gaussian 90(TM) system (copyright 1990, Gaussian, Inc.),
 the Gaussian 88(TM) system (copyright 1988, Gaussian, Inc.),
 the Gaussian 86(TM) system (copyright 1986, Carnegie Mellon
 University), and the Gaussian 82(TM) system (copyright 1983,
 Carnegie Mellon University). Gaussian is a federally registered
 trademark of Gaussian, Inc.
  
 This software contains proprietary and confidential information,
 including trade secrets, belonging to Gaussian, Inc.
  
 This software is provided under written license and may be
 used, copied, transmitted, or stored only in accord with that
 written license.
  
 The following legend is applicable only to US Government
 contracts under FAR:
  
                    RESTRICTED RIGHTS LEGEND
  
 Use, reproduction and disclosure by the US Government is
 subject to restrictions as set forth in subparagraphs (a)
 and (c) of the Commercial Computer Software - Restricted
 Rights clause in FAR 52.227-19.
  
 Gaussian, Inc.
 340 Quinnipiac St., Bldg. 40, Wallingford CT 06492
  
  
 ---------------------------------------------------------------
 Warning -- This program may not be used in any manner that
 competes with the business of Gaussian, Inc. or will provide
 assistance to any competitor of Gaussian, Inc.  The licensee
 of this program is prohibited from giving any competitor of
 Gaussian, Inc. access to this program.  By using this program,
 the user acknowledges that Gaussian, Inc. is engaged in the
 business of creating and licensing software in the field of
 computational chemistry and represents and warrants to the
 licensee that it is not a competitor of Gaussian, Inc. and that
 it will not use this program in any manner prohibited above.
 ---------------------------------------------------------------
  

 Cite this work as:
 Gaussian 09, Revision D.01,
 M. J. Frisch, G. W. Trucks, H. B. Schlegel, G. E. Scuseria, 
 M. A. Robb, J. R. Cheeseman, G. Scalmani, V. Barone, B. Mennucci, 
 G. A. Petersson, H. Nakatsuji, M. Caricato, X. Li, H. P. Hratchian, 
 A. F. Izmaylov, J. Bloino, G. Zheng, J. L. Sonnenberg, M. Hada, 
 M. Ehara, K. Toyota, R. Fukuda, J. Hasegawa, M. Ishida, T. Nakajima, 
 Y. Honda, O. Kitao, H. Nakai, T. Vreven, J. A. Montgomery, Jr., 
 J. E. Peralta, F. Ogliaro, M. Bearpark, J. J. Heyd, E. Brothers, 
 K. N. Kudin, V. N. Staroverov, T. Keith, R. Kobayashi, J. Normand, 
 K. Raghavachari, A. Rendell, J. C. Burant, S. S. Iyengar, J. Tomasi, 
 M. Cossi, N. Rega, J. M. Millam, M. Klene, J. E. Knox, J. B. Cross, 
 V. Bakken, C. Adamo, J. Jaramillo, R. Gomperts, R. E. Stratmann, 
 O. Yazyev, A. J. Austin, R. Cammi, C. Pomelli, J. W. Ochterski, 
 R. L. Martin, K. Morokuma, V. G. Zakrzewski, G. A. Voth, 
 P. Salvador, J. J. Dannenberg, S. Dapprich, A. D. Daniels, 
 O. Farkas, J. B. Foresman, J. V. Ortiz, J. Cioslowski, 
 and D. J. Fox, Gaussian, Inc., Wallingford CT, 2013.
 
 ******************************************
 Gaussian 09:  ES64L-G09RevD.01 24-Apr-2013
                17-Feb-2020 
 ******************************************
 %NProcShared=24
 Will use up to   24 processors via shared memory.
 %mem=50GB
 %oldChk=checkpointCPCM_acet.chk
 %Chk=checkpointCPCMES.chk
 Copying data from "checkpointCPCM_acet.chk" to current chk file "checkpointCPCMES.chk".
 ----------------------------------------------------------------------
 #p CAM-B3LYP/6-311++G** nosym density=current geom=allcheck EmpiricalD
 ispersion=GD3 SCRF=(CPCM, solvent=acetonitrile) IOP(10/74=10) TD=(NSTA
 TES=10,ROOT=1,NONEQ) iop(3/119=0810000000) iop(3/120=0810000000)
 ----------------------------------------------------------------------
 1/29=7,30=1,38=1/1;
 2/12=2,15=1,40=1/2;
 3/5=4,6=6,7=1111,11=9,14=-4,16=1,25=1,30=1,70=2101,71=1,72=2,74=-40,119=810000000,120=810000000,124=31/1,2,8,3;
 4//1;
 5/5=2,38=5,53=2/2;
 8/6=1,10=2,107=1,108=10/1;
 9/8=1,15=1,41=10,42=1,70=2,73=1/14;
 10/5=4,13=10,31=1,74=10/2;
 6/7=2,8=2,9=2,10=2,22=-1/1;
 99/5=1,9=1/99;
 Leave Link    1 at Mon Feb 17 09:28:20 2020, MaxMem=  6710886400 cpu:        21.5
 (Enter /opt/sys/apps/gaussian09/D.01/g09/l101.exe)
 Structure from the checkpoint file:  "checkpointCPCMES.chk"
 -------
 dianion
 -------
 Charge = -2 Multiplicity = 1
 Redundant internal coordinates found in file.
 O,0,2.7684665389,-0.4064813947,-4.7099714988
 O,0,2.7781950885,-0.3679893294,4.7053074623
 C,0,2.7097585608,-0.3764533858,-2.3394908914
 C,0,2.7143030581,-0.357169909,2.3348645215
 C,0,0.6404230098,-0.328609122,-3.6519044728
 C,0,0.6477815083,-0.3023679632,3.6513199
 C,0,-0.0927480219,-0.3025567418,-2.5015061336
 C,0,-0.0878648045,-0.28464607,2.5024565497
 C,0,0.5232182971,-0.3111134051,-1.213903821
 C,0,0.5252804139,-0.2993075984,1.2132561396
 C,0,1.9493477037,-0.3452166221,-1.1960473808
 C,0,1.9515770436,-0.3341208991,1.192802497
 C,0,2.09618919,-0.3676552035,-3.6402810095
 C,0,2.103494238,-0.3414505108,3.6368863236
 O,0,2.6231502815,-0.3464393038,-0.0021531202
 C,0,-0.1818821754,-0.2649789741,-0.0001329606
 C,0,-1.6738666237,-0.3323624837,0.002429559
 C,0,-2.2361866743,-1.6167740823,-0.0088918214
 C,0,-3.6163472649,-1.7950871201,-0.0112589982
 C,0,-4.4552940811,-0.6797919887,-0.0044259168
 C,0,-3.9008951241,0.5950254959,0.0054465264
 C,0,-2.5144686328,0.7929327391,0.0102714952
 H,0,3.7907291006,-0.4058770869,-2.266329731
 H,0,3.7951343263,-0.3870031256,2.2597540778
 H,0,0.1525917404,-0.3205277461,-4.6210733228
 H,0,0.1619628044,-0.2892309834,4.6214282776
 H,0,-1.1751817493,-0.2700218161,-2.5485446079
 H,0,-1.1701561908,-0.2547550371,2.5519896477
 H,0,-1.5782484298,-2.4789146084,-0.0154995202
 H,0,-4.0312952975,-2.7962984896,-0.0199074308
 H,0,-5.5319831044,-0.8048035447,-0.0080001028
 H,0,-4.5341751853,1.4743792827,0.0098867339
 C,0,-1.9672003064,2.230028513,0.0131649655
 O,0,-2.8219836535,3.1520049316,0.0663737191
 O,0,-0.7186323312,2.3580861962,-0.0219428992
 Recover connectivity data from disk.
 NAtoms=     35 NQM=       35 NQMF=       0 NMMI=      0 NMMIF=      0
                NMic=       0 NMicF=      0.
                    Isotopes and Nuclear Properties:
 (Nuclear quadrupole moments (NQMom) in fm**2, nuclear magnetic moments (NMagM)
  in nuclear magnetons)

  Atom         1           2           3           4           5           6           7           8           9          10
 IAtWgt=          16          16          12          12          12          12          12          12          12          12
 AtmWgt=  15.9949146  15.9949146  12.0000000  12.0000000  12.0000000  12.0000000  12.0000000  12.0000000  12.0000000  12.0000000
 NucSpn=           0           0           0           0           0           0           0           0           0           0
 AtZEff=  -5.6000000  -5.6000000  -3.6000000  -3.6000000  -3.6000000  -3.6000000  -3.6000000  -3.6000000  -3.6000000  -3.6000000
 NQMom=    0.0000000   0.0000000   0.0000000   0.0000000   0.0000000   0.0000000   0.0000000   0.0000000   0.0000000   0.0000000
 NMagM=    0.0000000   0.0000000   0.0000000   0.0000000   0.0000000   0.0000000   0.0000000   0.0000000   0.0000000   0.0000000
 AtZNuc=   8.0000000   8.0000000   6.0000000   6.0000000   6.0000000   6.0000000   6.0000000   6.0000000   6.0000000   6.0000000

  Atom        11          12          13          14          15          16          17          18          19          20
 IAtWgt=          12          12          12          12          16          12          12          12          12          12
 AtmWgt=  12.0000000  12.0000000  12.0000000  12.0000000  15.9949146  12.0000000  12.0000000  12.0000000  12.0000000  12.0000000
 NucSpn=           0           0           0           0           0           0           0           0           0           0
 AtZEff=  -3.6000000  -3.6000000  -3.6000000  -3.6000000  -5.6000000  -3.6000000  -3.6000000  -3.6000000  -3.6000000  -3.6000000
 NQMom=    0.0000000   0.0000000   0.0000000   0.0000000   0.0000000   0.0000000   0.0000000   0.0000000   0.0000000   0.0000000
 NMagM=    0.0000000   0.0000000   0.0000000   0.0000000   0.0000000   0.0000000   0.0000000   0.0000000   0.0000000   0.0000000
 AtZNuc=   6.0000000   6.0000000   6.0000000   6.0000000   8.0000000   6.0000000   6.0000000   6.0000000   6.0000000   6.0000000

  Atom        21          22          23          24          25          26          27          28          29          30
 IAtWgt=          12          12           1           1           1           1           1           1           1           1
 AtmWgt=  12.0000000  12.0000000   1.0078250   1.0078250   1.0078250   1.0078250   1.0078250   1.0078250   1.0078250   1.0078250
 NucSpn=           0           0           1           1           1           1           1           1           1           1
 AtZEff=  -3.6000000  -3.6000000  -1.0000000  -1.0000000  -1.0000000  -1.0000000  -1.0000000  -1.0000000  -1.0000000  -1.0000000
 NQMom=    0.0000000   0.0000000   0.0000000   0.0000000   0.0000000   0.0000000   0.0000000   0.0000000   0.0000000   0.0000000
 NMagM=    0.0000000   0.0000000   2.7928460   2.7928460   2.7928460   2.7928460   2.7928460   2.7928460   2.7928460   2.7928460
 AtZNuc=   6.0000000   6.0000000   1.0000000   1.0000000   1.0000000   1.0000000   1.0000000   1.0000000   1.0000000   1.0000000

  Atom        31          32          33          34          35
 IAtWgt=           1           1          12          16          16
 AtmWgt=   1.0078250   1.0078250  12.0000000  15.9949146  15.9949146
 NucSpn=           1           1           0           0           0
 AtZEff=  -1.0000000  -1.0000000  -3.6000000  -5.6000000  -5.6000000
 NQMom=    0.0000000   0.0000000   0.0000000   0.0000000   0.0000000
 NMagM=    2.7928460   2.7928460   0.0000000   0.0000000   0.0000000
 AtZNuc=   1.0000000   1.0000000   6.0000000   8.0000000   8.0000000
 Leave Link  101 at Mon Feb 17 09:28:20 2020, MaxMem=  6710886400 cpu:         7.0
 (Enter /opt/sys/apps/gaussian09/D.01/g09/l202.exe)
                          Input orientation:                          
 ---------------------------------------------------------------------
 Center     Atomic      Atomic             Coordinates (Angstroms)
 Number     Number       Type             X           Y           Z
 ---------------------------------------------------------------------
      1          8           0        2.768467   -0.406481   -4.709971
      2          8           0        2.778195   -0.367989    4.705307
      3          6           0        2.709759   -0.376453   -2.339491
      4          6           0        2.714303   -0.357170    2.334865
      5          6           0        0.640423   -0.328609   -3.651904
      6          6           0        0.647782   -0.302368    3.651320
      7          6           0       -0.092748   -0.302557   -2.501506
      8          6           0       -0.087865   -0.284646    2.502457
      9          6           0        0.523218   -0.311113   -1.213904
     10          6           0        0.525280   -0.299308    1.213256
     11          6           0        1.949348   -0.345217   -1.196047
     12          6           0        1.951577   -0.334121    1.192802
     13          6           0        2.096189   -0.367655   -3.640281
     14          6           0        2.103494   -0.341451    3.636886
     15          8           0        2.623150   -0.346439   -0.002153
     16          6           0       -0.181882   -0.264979   -0.000133
     17          6           0       -1.673867   -0.332362    0.002430
     18          6           0       -2.236187   -1.616774   -0.008892
     19          6           0       -3.616347   -1.795087   -0.011259
     20          6           0       -4.455294   -0.679792   -0.004426
     21          6           0       -3.900895    0.595025    0.005447
     22          6           0       -2.514469    0.792933    0.010271
     23          1           0        3.790729   -0.405877   -2.266330
     24          1           0        3.795134   -0.387003    2.259754
     25          1           0        0.152592   -0.320528   -4.621073
     26          1           0        0.161963   -0.289231    4.621428
     27          1           0       -1.175182   -0.270022   -2.548545
     28          1           0       -1.170156   -0.254755    2.551990
     29          1           0       -1.578248   -2.478915   -0.015500
     30          1           0       -4.031295   -2.796298   -0.019907
     31          1           0       -5.531983   -0.804804   -0.008000
     32          1           0       -4.534175    1.474379    0.009887
     33          6           0       -1.967200    2.230029    0.013165
     34          8           0       -2.821984    3.152005    0.066374
     35          8           0       -0.718632    2.358086   -0.021943
 ---------------------------------------------------------------------
                    Distance matrix (angstroms):
                    1          2          3          4          5
     1  O    0.000000
     2  O    9.415363   0.000000
     3  C    2.371398   7.045136   0.000000
     4  C    7.045217   2.371329   4.674397   0.000000
     5  C    2.377843   8.626390   2.450891   6.335866   0.000000
     6  C    8.626664   2.377784   6.336170   2.450830   7.303275
     7  C    3.615891   7.757884   2.808158   5.592227   1.364417
     8  C    7.758388   3.615771   5.592815   2.808112   6.197459
     9  C    4.156047   6.334447   2.460117   4.170939   2.440879
    10  C    6.334666   4.156292   4.171320   2.460320   4.866611
    11  C    3.608652   5.959320   1.373559   3.612844   2.782947
    12  C    5.959470   3.608620   3.612994   1.373531   5.018998
    13  C    1.264002   8.373409   1.438263   6.007041   1.456336
    14  C    8.373557   1.263902   6.007151   1.438261   7.434192
    15  O    4.710443   4.710062   2.339134   2.338819   4.153578
    16  C    5.559421   5.560021   3.721103   3.721371   3.743751
    17  C    6.476615   6.476047   4.970182   4.969598   4.325518
    18  C    6.972196   6.994795   5.606466   5.620244   4.817239
    19  C    8.048104   8.072966   6.888599   6.902828   5.790073
    20  C    8.625519   8.637255   7.542050   7.548476   6.276445
    21  C    8.229129   8.223523   7.081190   7.077691   5.903633
    22  C    7.185311   7.169616   5.846486   5.836653   4.962130
    23  H    2.648850   7.044884   1.083843   4.725680   3.442414
    24  H    7.044963   2.648633   4.725591   1.083849   6.700994
    25  H    2.618796   9.689036   3.427513   7.412744   1.085050
    26  H    9.689305   2.618761   7.413047   3.427452   8.287250
    27  H    4.499194   8.261789   3.892016   6.243667   2.125384
    28  H    8.262678   4.498786   6.244608   3.891870   6.463123
    29  H    6.725101   6.761703   5.311147   5.334043   4.771767
    30  H    8.599110   8.636753   7.528474   7.549662   6.411384
    31  H    9.548019   9.563741   8.575875   8.584324   7.183550
    32  H    8.896251   8.883246   7.837074   7.829466   6.590595
    33  C    7.189280   7.161332   5.848306   5.830983   5.174849
    34  O    8.168808   8.079113   6.988446   6.936197   6.158614
    35  O    6.463769   6.481218   4.960101   4.971137   4.716141
                    6          7          8          9         10
     6  C    0.000000
     7  C    6.197229   0.000000
     8  C    1.364323   5.003997   0.000000
     9  C    4.866826   1.427378   3.766359   0.000000
    10  C    2.441141   3.765824   1.427655   2.427190   0.000000
    11  C    5.019251   2.424087   4.222894   1.426649   2.799075
    12  C    2.783020   4.222343   2.424245   2.798745   1.426868
    13  C    7.434352   2.468297   6.519985   2.892186   5.101887
    14  C    1.456309   6.519575   2.468241   5.101799   2.892493
    15  O    4.153539   3.691178   3.691408   2.424727   2.424974
    16  C    3.744709   2.503243   2.504432   1.404470   1.404838
    17  C    4.324968   2.961506   2.961049   2.511394   2.510666
    18  C    4.841703   3.540427   3.563246   3.281938   3.294702
    19  C    5.815968   4.565603   4.588070   4.559006   4.570544
    20  C    6.288744   5.040786   5.051241   5.136569   5.141366
    21  C    5.898149   4.646768   4.641991   4.677679   4.674363
    22  C    4.945376   3.657028   3.641506   3.456163   3.446772
    23  H    6.701299   3.891963   6.148131   3.434124   4.773052
    24  H    3.442303   6.147549   3.891923   4.772577   3.434355
    25  H    8.287221   2.133795   7.127677   3.427281   5.846259
    26  H    1.085036   7.127500   2.133653   5.846545   3.427497
    27  H    6.462396   1.083944   5.166729   2.160444   4.128386
    28  H    2.125016   5.167293   1.083837   4.129485   2.160717
    29  H    4.810211   3.622634   3.657343   3.248338   3.268847
    30  H    6.449136   5.281026   5.312378   5.324037   5.340228
    31  H    7.199483   6.004590   6.017589   6.193819   6.199793
    32  H    6.577959   5.402858   5.392286   5.501170   5.494739
    33  C    5.146585   4.031269   4.006503   3.763680   3.748362
    34  O    6.068262   5.096737   5.021999   4.982236   4.942780
    35  O    4.736873   3.690391   3.708705   3.176097   3.183517
                   11         12         13         14         15
    11  C    0.000000
    12  C    2.388877   0.000000
    13  C    2.448743   4.835363   0.000000
    14  C    4.835393   2.448812   7.277218   0.000000
    15  O    1.370910   1.370796   3.676155   3.675959   0.000000
    16  C    2.445156   2.445306   4.295443   4.296126   2.806216
    17  C    3.816306   3.815866   5.242510   5.241928   4.297042
    18  C    4.532648   4.541655   5.789367   5.809559   5.022644
    19  C    5.872206   5.880984   6.916678   6.938199   6.405466
    20  C    6.523139   6.526932   7.499254   7.509416   7.086290
    21  C    6.045906   6.043555   7.084003   7.079339   6.591630
    22  C    4.761958   4.755438   5.994303   5.980363   5.262457
    23  H    2.130697   3.918319   2.181896   6.139941   2.548189
    24  H    3.918066   2.130701   6.139805   2.181792   2.547826
    25  H    3.867783   6.085859   2.177555   8.485302   5.238201
    26  H    6.086124   3.867843   8.485471   2.177520   5.238151
    27  H    3.405523   4.876311   3.450114   7.001027   4.573541
    28  H    4.877219   3.405717   7.001855   3.449827   4.573973
    29  H    4.288391   4.303464   5.576554   5.609269   4.711622
    30  H    6.569566   6.582381   7.520072   7.552090   7.091105
    31  H    7.589004   7.593888   8.460117   8.473512   8.168007
    32  H    6.841146   6.836296   7.789644   7.778883   7.385312
    33  C    4.840809   4.829412   6.050352   6.026144   5.264004
    34  O    6.048956   6.017375   7.093358   7.015207   6.472503
    35  O    3.975485   3.981658   5.333410   5.351535   4.299112
                   16         17         18         19         20
    16  C    0.000000
    17  C    1.493508   0.000000
    18  C    2.459186   1.402157   0.000000
    19  C    3.759908   2.431662   1.391634   0.000000
    20  C    4.293499   2.803051   2.408816   1.395622   0.000000
    21  C    3.817158   2.412408   2.768306   2.407049   1.390185
    22  C    2.561298   1.404622   2.425798   2.812907   2.436378
    23  H    4.575712   5.917303   6.548741   7.866386   8.555007
    24  H    4.575876   5.916796   6.560177   7.878468   8.560479
    25  H    4.633363   4.971204   5.353385   6.134298   6.532619
    26  H    4.634398   4.970642   5.380832   6.164821   6.547528
    27  H    2.735155   2.600008   3.064198   3.837047   4.171281
    28  H    2.736808   2.600001   3.090248   3.863511   4.184262
    29  H    2.617553   2.148756   1.084533   2.149764   3.393281
    30  H    4.607163   3.410125   2.147979   1.083827   2.158614
    31  H    5.377272   3.886949   3.394344   2.156463   1.083928
    32  H    4.686995   3.383155   3.851796   3.395919   2.155663
    33  C    3.067996   2.579149   3.856259   4.349924   3.828574
    34  O    4.318604   3.669207   4.805213   5.011064   4.165979
    35  O    2.677508   2.855097   4.254722   5.064160   4.815771
                   21         22         23         24         25
    21  C    0.000000
    22  C    1.400489   0.000000
    23  H    8.082318   6.809962   0.000000
    24  H    8.079304   6.801728   4.526125   0.000000
    25  H    6.218817   5.459154   4.334529   7.785777   0.000000
    26  H    6.212569   5.440324   7.786062   4.334397   9.242559
    27  H    3.834148   3.077515   4.975779   6.916463   2.461891
    28  H    3.829353   3.060254   6.917328   4.975641   7.294301
    29  H    3.852822   3.403257   6.179777   6.198880   5.372686
    30  H    3.393925   3.896698   8.482016   8.500268   6.693660
    31  H    2.149453   3.414453   9.600633   9.607933   7.336849
    32  H    1.083663   2.131568   8.832925   8.826327   6.828855
    33  C    2.532286   1.537776   6.730367   6.715692   5.698686
    34  O    2.775951   2.379692   7.863078   7.818040   6.548186
    35  O    3.638122   2.382388   5.745529   5.754628   5.393144
                   26         27         28         29         30
    26  H    0.000000
    27  H    7.293616   0.000000
    28  H    2.461363   5.100560   0.000000
    29  H    5.415178   3.384965   3.421319   0.000000
    30  H    6.738753   4.575310   4.610880   2.473498   0.000000
    31  H    7.356524   5.071694   5.087400   4.293568   2.493643
    32  H    6.813982   4.568517   4.557282   4.936262   4.300287
    33  C    5.667106   3.666047   3.640750   4.725066   5.433741
    34  O    6.441627   4.610859   4.529110   5.767221   6.070601
    35  O    5.417069   3.674113   3.695395   4.912795   6.127105
                   31         32         33         34         35
    31  H    0.000000
    32  H    2.488095   0.000000
    33  C    4.681702   2.675888   0.000000
    34  O    4.796453   2.397753   1.258382   0.000000
    35  O    5.759550   3.916672   1.255609   2.249932   0.000000
 Symmetry turned off by external request.
 Stoichiometry    C20H10O5(2-)
 Framework group  C1[X(C20H10O5)]
 Deg. of freedom    99
 Full point group                 C1      NOp   1
 Rotational constants (GHZ):      0.2331047      0.2281039      0.1413373
 Leave Link  202 at Mon Feb 17 09:28:20 2020, MaxMem=  6710886400 cpu:         0.1
 (Enter /opt/sys/apps/gaussian09/D.01/g09/l301.exe)
 Standard basis: 6-311++G(d,p) (5D, 7F)
 Ernie: Thresh=  0.10000D-02 Tol=  0.10000D-05 Strict=F.
   620 basis functions,   990 primitive gaussians,   645 cartesian basis functions
    86 alpha electrons       86 beta electrons
       nuclear repulsion energy      2030.5530199866 Hartrees.
 IExCor=20419 DFT=T Ex+Corr=CAM-B3LYP ExCW=0 ScaHFX=  1.000000
 ScaDFX=  1.000000  1.000000  1.000000  0.810000 ScalE2=  1.000000  1.000000
 IRadAn=      0 IRanWt=     -1 IRanGd=            0 ICorTp=0 IEmpDi=131
  HFx wShort=  0.000000 wLong=  0.330000 cFull=  0.190000 cShort=  0.000000 cLong=  0.810000
  DFx wShort=  0.000000 wLong=  0.330000 cFull=  0.190000 cShort=  0.000000 cLong=  0.810000
 NAtoms=   35 NActive=   35 NUniq=   35 SFac= 1.00D+00 NAtFMM=   60 NAOKFM=F Big=F
 Integral buffers will be    131072 words long.
 Raffenetti 1 integral format.
 Two-electron integral symmetry is turned off.
 R6Disp:  Grimme-D3 Dispersion energy=       -0.0265236715 Hartrees.
 Nuclear repulsion after empirical dispersion term =     2030.5264963151 Hartrees.
 ------------------------------------------------------------------------------
 Polarizable Continuum Model (PCM)
 =================================
 Model                : C-PCM.
 Atomic radii         : UFF (Universal Force Field).
 Polarization charges : Total charges.
 Charge compensation  : None.
 Solution method      : On-the-fly selection.
 Cavity type          : Scaled VdW (van der Waals Surface) (Alpha=1.100).
 Cavity algorithm     : GePol (No added spheres)
                        Default sphere list used, NSphG=   35.
                        Lebedev-Laikov grids with approx.  5.0 points / Ang**2.
                        Smoothing algorithm: Karplus/York (Gamma=1.0000).
                        Polarization charges: spherical gaussians, with
                                              point-specific exponents (IZeta= 3).
                        Self-potential: point-specific (ISelfS= 7).
                        Self-field    : sphere-specific E.n sum rule (ISelfD= 2).
 1st derivatives      : Analytical E(r).r(x)/FMM algorithm (CHGder, D1EAlg=3).
                        Cavity 1st derivative terms included.
 Solvent              : Acetonitrile, Eps=  35.688000 Eps(inf)=   1.806874
 ------------------------------------------------------------------------------
 GePol: Number of generator spheres                  =      35
 GePol: Total number of spheres                      =      35
 GePol: Number of exposed spheres                    =      35 (100.00%)
 GePol: Number of points                             =    2907
 GePol: Average weight of points                     =       0.13
 GePol: Minimum weight of points                     =   0.20D-11
 GePol: Maximum weight of points                     =    0.20577
 GePol: Number of points with low weight             =     177
 GePol: Fraction of low-weight points (<1% of avg)   =       6.09%
 GePol: Cavity surface area                          =    368.965 Ang**2
 GePol: Cavity volume                                =    411.488 Ang**3
 Leave Link  301 at Mon Feb 17 09:28:20 2020, MaxMem=  6710886400 cpu:         1.6
 (Enter /opt/sys/apps/gaussian09/D.01/g09/l302.exe)
 NPDir=0 NMtPBC=     1 NCelOv=     1 NCel=       1 NClECP=     1 NCelD=      1
         NCelK=      1 NCelE2=     1 NClLst=     1 CellRange=     0.0.
 One-electron integrals computed using PRISM.
 NBasis=   620 RedAO= T EigKep=  1.68D-06  NBF=   620
 NBsUse=   611 1.00D-06 EigRej=  9.49D-07 NBFU=   611
 Precomputing XC quadrature grid using
 IXCGrd= 4 IRadAn=           0 IRanWt=          -1 IRanGd=           0 AccXCQ= 0.00D+00.
 Generated NRdTot=       0 NPtTot=           0 NUsed=           0 NTot=          32
 NSgBfM=   637   637   637   637   637 MxSgAt=    35 MxSgA2=    35.
 Leave Link  302 at Mon Feb 17 09:28:21 2020, MaxMem=  6710886400 cpu:        19.8
 (Enter /opt/sys/apps/gaussian09/D.01/g09/l308.exe)
 Leave Link  308 at Mon Feb 17 09:28:21 2020, MaxMem=  6710886400 cpu:         3.1
 (Enter /opt/sys/apps/gaussian09/D.01/g09/l303.exe)
 DipDrv:  MaxL=1.
 Leave Link  303 at Mon Feb 17 09:28:22 2020, MaxMem=  6710886400 cpu:         2.0
 (Enter /opt/sys/apps/gaussian09/D.01/g09/l401.exe)
 ExpMin= 3.60D-02 ExpMax= 8.59D+03 ExpMxC= 1.30D+03 IAcc=3 IRadAn=         5 AccDes= 0.00D+00
 Harris functional with IExCor=20419 and IRadAn=       5 diagonalized for initial guess.
 HarFok:  IExCor=20419 AccDes= 0.00D+00 IRadAn=         5 IDoV= 1 UseB2=F ITyADJ=14
 ICtDFT=  3500011 ScaDFX=  1.000000  1.000000  1.000000  1.000000
 FoFCou: FMM=F IPFlag=           0 FMFlag=      100000 FMFlg1=           0
         NFxFlg=           0 DoJE=T BraDBF=F KetDBF=T FulRan=T
         wScrn=  0.000000 ICntrl=     500 IOpCl=  0 I1Cent=   200000004 NGrid=           0
         NMat0=    1 NMatS0=      1 NMatT0=    0 NMatD0=    1 NMtDS0=    0 NMtDT0=    0
 Symmetry not used in FoFCou.
 Harris En= -1091.13845475325    
 JPrj=0 DoOrth=F DoCkMO=F.
 Leave Link  401 at Mon Feb 17 09:28:25 2020, MaxMem=  6710886400 cpu:        69.8
 (Enter /opt/sys/apps/gaussian09/D.01/g09/l502.exe)
 Closed shell SCF:
 Using DIIS extrapolation, IDIIS=  1040.
 Two-electron integral symmetry not used.
 IVT=     1286045 IEndB=     1286045 NGot=  6710886400 MDV=  6710033666
 LenX=  6710033666 LenY=  6709616996
 Requested convergence on RMS density matrix=1.00D-08 within 128 cycles.
 Requested convergence on MAX density matrix=1.00D-06.
 Requested convergence on             energy=1.00D-06.
 No special actions if energy rises.
 Fock matrices will be formed incrementally for  20 cycles.

 Cycle   1  Pass 1  IDiag  1:
 FoFJK:  IHMeth= 1 ICntrl=       0 DoSepK=T KAlg= 0 I1Cent=   0 FoldK=F
 IRaf=         1 NMat=   1 IRICut=       1 DoRegI=T DoRafI=F ISym2E= 0.
 FoFCou: FMM=F IPFlag=           0 FMFlag=      100000 FMFlg1=           0
         NFxFlg=           0 DoJE=T BraDBF=F KetDBF=F FulRan=T
         wScrn=  0.000000 ICntrl=     500 IOpCl=  0 I1Cent=           0 NGrid=           0
         NMat0=    1 NMatS0=      1 NMatT0=    0 NMatD0=    1 NMtDS0=    0 NMtDT0=    0
 Symmetry not used in FoFCou.
 Inv3:  Mode=1 IEnd=    25351947.
 Iteration    1 A*A^-1 deviation from unit magnitude is 7.33D-15 for   2877.
 Iteration    1 A*A^-1 deviation from orthogonality  is 5.20D-15 for   2877   1768.
 Iteration    1 A^-1*A deviation from unit magnitude is 6.88D-15 for   2877.
 Iteration    1 A^-1*A deviation from orthogonality  is 2.27D-15 for   2906   1566.
 E= -1143.21752759030    
 DIIS: error= 8.82D-02 at cycle   1 NSaved=   1.
 NSaved= 1 IEnMin= 1 EnMin= -1143.21752759030     IErMin= 1 ErrMin= 8.82D-02
 ErrMax= 8.82D-02  0.00D+00 EMaxC= 1.00D-01 BMatC= 1.93D+00 BMatP= 1.93D+00
 IDIUse=3 WtCom= 1.18D-01 WtEn= 8.82D-01
 Coeff-Com:  0.100D+01
 Coeff-En:   0.100D+01
 Coeff:      0.100D+01
 Gap=     0.260 Goal=   None    Shift=    0.000
 GapD=    0.260 DampG=1.000 DampE=0.500 DampFc=0.5000 IDamp=-1.
 Damping current iteration by 5.00D-01
 RMSDP=2.09D-02 MaxDP=2.78D+00              OVMax= 1.83D-01

 Cycle   2  Pass 1  IDiag  1:
 RMSU=  6.88D-03    CP:  8.69D-01
 E= -1143.37354738306     Delta-E=       -0.156019792756 Rises=F Damp=T
 DIIS: error= 4.11D-02 at cycle   2 NSaved=   2.
 NSaved= 2 IEnMin= 2 EnMin= -1143.37354738306     IErMin= 2 ErrMin= 4.11D-02
 ErrMax= 4.11D-02  0.00D+00 EMaxC= 1.00D-01 BMatC= 3.92D-01 BMatP= 1.93D+00
 IDIUse=3 WtCom= 5.89D-01 WtEn= 4.11D-01
 Coeff-Com: -0.560D+00 0.156D+01
 Coeff-En:   0.000D+00 0.100D+01
 Coeff:     -0.330D+00 0.133D+01
 Gap=     0.267 Goal=   None    Shift=    0.000
 RMSDP=1.05D-02 MaxDP=1.40D+00 DE=-1.56D-01 OVMax= 1.48D-01

 Cycle   3  Pass 1  IDiag  1:
 RMSU=  5.12D-03    CP:  7.62D-01  1.95D+00
 E= -1143.50188016518     Delta-E=       -0.128332782126 Rises=F Damp=F
 DIIS: error= 1.34D-02 at cycle   3 NSaved=   3.
 NSaved= 3 IEnMin= 3 EnMin= -1143.50188016518     IErMin= 3 ErrMin= 1.34D-02
 ErrMax= 1.34D-02  0.00D+00 EMaxC= 1.00D-01 BMatC= 6.23D-02 BMatP= 3.92D-01
 IDIUse=3 WtCom= 8.66D-01 WtEn= 1.34D-01
 Coeff-Com: -0.290D+00 0.632D+00 0.658D+00
 Coeff-En:   0.000D+00 0.000D+00 0.100D+01
 Coeff:     -0.252D+00 0.548D+00 0.704D+00
 Gap=     0.253 Goal=   None    Shift=    0.000
 RMSDP=3.55D-03 MaxDP=5.36D-01 DE=-1.28D-01 OVMax= 4.48D-02

 Cycle   4  Pass 1  IDiag  1:
 RMSU=  1.18D-03    CP:  7.13D-01  2.12D+00  8.13D-01
 E= -1143.54278750980     Delta-E=       -0.040907344615 Rises=F Damp=F
 DIIS: error= 4.18D-03 at cycle   4 NSaved=   4.
 NSaved= 4 IEnMin= 4 EnMin= -1143.54278750980     IErMin= 4 ErrMin= 4.18D-03
 ErrMax= 4.18D-03  0.00D+00 EMaxC= 1.00D-01 BMatC= 4.51D-03 BMatP= 6.23D-02
 IDIUse=3 WtCom= 9.58D-01 WtEn= 4.18D-02
 Coeff-Com: -0.972D-01 0.210D+00 0.340D+00 0.548D+00
 Coeff-En:   0.000D+00 0.000D+00 0.000D+00 0.100D+01
 Coeff:     -0.932D-01 0.201D+00 0.325D+00 0.567D+00
 Gap=     0.252 Goal=   None    Shift=    0.000
 RMSDP=4.93D-04 MaxDP=3.27D-02 DE=-4.09D-02 OVMax= 7.87D-03

 Cycle   5  Pass 1  IDiag  1:
 RMSU=  3.28D-04    CP:  7.14D-01  2.14D+00  8.75D-01  9.20D-01
 E= -1143.54574043556     Delta-E=       -0.002952925761 Rises=F Damp=F
 DIIS: error= 4.36D-04 at cycle   5 NSaved=   5.
 NSaved= 5 IEnMin= 5 EnMin= -1143.54574043556     IErMin= 5 ErrMin= 4.36D-04
 ErrMax= 4.36D-04  0.00D+00 EMaxC= 1.00D-01 BMatC= 7.61D-05 BMatP= 4.51D-03
 IDIUse=3 WtCom= 9.96D-01 WtEn= 4.36D-03
 Coeff-Com:  0.199D-01-0.441D-01-0.226D-01 0.870D-01 0.960D+00
 Coeff-En:   0.000D+00 0.000D+00 0.000D+00 0.000D+00 0.100D+01
 Coeff:      0.199D-01-0.439D-01-0.225D-01 0.866D-01 0.960D+00
 Gap=     0.254 Goal=   None    Shift=    0.000
 RMSDP=5.59D-04 MaxDP=7.86D-02 DE=-2.95D-03 OVMax= 4.01D-03

 Cycle   6  Pass 1  IDiag  1:
 RMSU=  1.31D-04    CP:  7.08D-01  2.17D+00  9.12D-01  1.11D+00  1.24D+00
 E= -1143.54587430873     Delta-E=       -0.000133873173 Rises=F Damp=F
 DIIS: error= 3.82D-04 at cycle   6 NSaved=   6.
 NSaved= 6 IEnMin= 6 EnMin= -1143.54587430873     IErMin= 6 ErrMin= 3.82D-04
 ErrMax= 3.82D-04  0.00D+00 EMaxC= 1.00D-01 BMatC= 2.99D-05 BMatP= 7.61D-05
 IDIUse=3 WtCom= 9.96D-01 WtEn= 3.82D-03
 Coeff-Com:  0.208D-01-0.451D-01-0.513D-01-0.314D-01 0.464D+00 0.643D+00
 Coeff-En:   0.000D+00 0.000D+00 0.000D+00 0.000D+00 0.000D+00 0.100D+01
 Coeff:      0.207D-01-0.450D-01-0.511D-01-0.313D-01 0.462D+00 0.644D+00
 Gap=     0.254 Goal=   None    Shift=    0.000
 RMSDP=1.21D-04 MaxDP=1.61D-02 DE=-1.34D-04 OVMax= 2.63D-03

 Cycle   7  Pass 1  IDiag  1:
 RMSU=  5.25D-05    CP:  7.06D-01  2.18D+00  9.17D-01  1.14D+00  1.34D+00
                    CP:  1.15D+00
 E= -1143.54590901722     Delta-E=       -0.000034708485 Rises=F Damp=F
 DIIS: error= 1.05D-04 at cycle   7 NSaved=   7.
 NSaved= 7 IEnMin= 7 EnMin= -1143.54590901722     IErMin= 7 ErrMin= 1.05D-04
 ErrMax= 1.05D-04  0.00D+00 EMaxC= 1.00D-01 BMatC= 2.37D-06 BMatP= 2.99D-05
 IDIUse=3 WtCom= 9.99D-01 WtEn= 1.05D-03
 Coeff-Com:  0.138D-03-0.178D-03-0.522D-02-0.196D-01-0.713D-01 0.152D+00
 Coeff-Com:  0.944D+00
 Coeff-En:   0.000D+00 0.000D+00 0.000D+00 0.000D+00 0.000D+00 0.000D+00
 Coeff-En:   0.100D+01
 Coeff:      0.138D-03-0.178D-03-0.521D-02-0.195D-01-0.712D-01 0.152D+00
 Coeff:      0.944D+00
 Gap=     0.255 Goal=   None    Shift=    0.000
 RMSDP=6.19D-05 MaxDP=7.97D-03 DE=-3.47D-05 OVMax= 1.09D-03

 Cycle   8  Pass 1  IDiag  1:
 RMSU=  2.05D-05    CP:  7.06D-01  2.18D+00  9.18D-01  1.16D+00  1.38D+00
                    CP:  1.35D+00  1.18D+00
 E= -1143.54591473764     Delta-E=       -0.000005720422 Rises=F Damp=F
 DIIS: error= 3.37D-05 at cycle   8 NSaved=   8.
 NSaved= 8 IEnMin= 8 EnMin= -1143.54591473764     IErMin= 8 ErrMin= 3.37D-05
 ErrMax= 3.37D-05  0.00D+00 EMaxC= 1.00D-01 BMatC= 3.64D-07 BMatP= 2.37D-06
 IDIUse=1 WtCom= 1.00D+00 WtEn= 0.00D+00
 Coeff-Com: -0.319D-02 0.694D-02 0.636D-02-0.214D-02-0.932D-01-0.239D-01
 Coeff-Com:  0.269D+00 0.840D+00
 Coeff:     -0.319D-02 0.694D-02 0.636D-02-0.214D-02-0.932D-01-0.239D-01
 Coeff:      0.269D+00 0.840D+00
 Gap=     0.255 Goal=   None    Shift=    0.000
 RMSDP=1.55D-05 MaxDP=1.13D-03 DE=-5.72D-06 OVMax= 4.98D-04

 Cycle   9  Pass 1  IDiag  1:
 RMSU=  5.63D-06    CP:  7.06D-01  2.18D+00  9.19D-01  1.16D+00  1.38D+00
                    CP:  1.43D+00  1.21D+00  1.25D+00
 E= -1143.54591575354     Delta-E=       -0.000001015898 Rises=F Damp=F
 DIIS: error= 1.70D-05 at cycle   9 NSaved=   9.
 NSaved= 9 IEnMin= 9 EnMin= -1143.54591575354     IErMin= 9 ErrMin= 1.70D-05
 ErrMax= 1.70D-05  0.00D+00 EMaxC= 1.00D-01 BMatC= 6.12D-08 BMatP= 3.64D-07
 IDIUse=1 WtCom= 1.00D+00 WtEn= 0.00D+00
 Coeff-Com: -0.404D-03 0.853D-03 0.164D-02 0.218D-02-0.224D-02-0.180D-01
 Coeff-Com: -0.158D+00 0.152D+00 0.102D+01
 Coeff:     -0.404D-03 0.853D-03 0.164D-02 0.218D-02-0.224D-02-0.180D-01
 Coeff:     -0.158D+00 0.152D+00 0.102D+01
 Gap=     0.255 Goal=   None    Shift=    0.000
 RMSDP=5.85D-06 MaxDP=2.60D-04 DE=-1.02D-06 OVMax= 3.51D-04

 Cycle  10  Pass 1  IDiag  1:
 RMSU=  3.04D-06    CP:  7.06D-01  2.18D+00  9.19D-01  1.16D+00  1.38D+00
                    CP:  1.44D+00  1.23D+00  1.41D+00  1.23D+00
 E= -1143.54591598210     Delta-E=       -0.000000228563 Rises=F Damp=F
 DIIS: error= 7.75D-06 at cycle  10 NSaved=  10.
 NSaved=10 IEnMin=10 EnMin= -1143.54591598210     IErMin=10 ErrMin= 7.75D-06
 ErrMax= 7.75D-06  0.00D+00 EMaxC= 1.00D-01 BMatC= 1.07D-08 BMatP= 6.12D-08
 IDIUse=1 WtCom= 1.00D+00 WtEn= 0.00D+00
 Coeff-Com:  0.247D-03-0.540D-03-0.308D-03 0.744D-03 0.949D-02 0.116D-02
 Coeff-Com: -0.827D-01-0.567D-01 0.333D+00 0.796D+00
 Coeff:      0.247D-03-0.540D-03-0.308D-03 0.744D-03 0.949D-02 0.116D-02
 Coeff:     -0.827D-01-0.567D-01 0.333D+00 0.796D+00
 Gap=     0.255 Goal=   None    Shift=    0.000
 RMSDP=2.27D-06 MaxDP=1.81D-04 DE=-2.29D-07 OVMax= 8.14D-05

 Cycle  11  Pass 1  IDiag  1:
 RMSU=  1.22D-06    CP:  7.06D-01  2.18D+00  9.19D-01  1.16D+00  1.38D+00
                    CP:  1.44D+00  1.20D+00  1.43D+00  1.30D+00  1.19D+00
 E= -1143.54591601236     Delta-E=       -0.000000030258 Rises=F Damp=F
 DIIS: error= 3.36D-06 at cycle  11 NSaved=  11.
 NSaved=11 IEnMin=11 EnMin= -1143.54591601236     IErMin=11 ErrMin= 3.36D-06
 ErrMax= 3.36D-06  0.00D+00 EMaxC= 1.00D-01 BMatC= 2.35D-09 BMatP= 1.07D-08
 IDIUse=1 WtCom= 1.00D+00 WtEn= 0.00D+00
 Coeff-Com:  0.171D-03-0.369D-03-0.467D-03-0.148D-03 0.408D-02 0.540D-02
 Coeff-Com: -0.726D-04-0.603D-01-0.841D-01 0.259D+00 0.877D+00
 Coeff:      0.171D-03-0.369D-03-0.467D-03-0.148D-03 0.408D-02 0.540D-02
 Coeff:     -0.726D-04-0.603D-01-0.841D-01 0.259D+00 0.877D+00
 Gap=     0.255 Goal=   None    Shift=    0.000
 RMSDP=1.45D-06 MaxDP=8.16D-05 DE=-3.03D-08 OVMax= 6.04D-05

 Cycle  12  Pass 1  IDiag  1:
 RMSU=  6.18D-07    CP:  7.06D-01  2.18D+00  9.19D-01  1.16D+00  1.39D+00
                    CP:  1.43D+00  1.19D+00  1.43D+00  1.33D+00  1.45D+00
                    CP:  1.26D+00
 E= -1143.54591602056     Delta-E=       -0.000000008198 Rises=F Damp=F
 DIIS: error= 1.36D-06 at cycle  12 NSaved=  12.
 NSaved=12 IEnMin=12 EnMin= -1143.54591602056     IErMin=12 ErrMin= 1.36D-06
 ErrMax= 1.36D-06  0.00D+00 EMaxC= 1.00D-01 BMatC= 5.38D-10 BMatP= 2.35D-09
 IDIUse=1 WtCom= 1.00D+00 WtEn= 0.00D+00
 Coeff-Com:  0.225D-05-0.397D-05-0.848D-04-0.194D-03-0.668D-03 0.233D-02
 Coeff-Com:  0.180D-01-0.113D-01-0.978D-01-0.850D-01 0.344D+00 0.831D+00
 Coeff:      0.225D-05-0.397D-05-0.848D-04-0.194D-03-0.668D-03 0.233D-02
 Coeff:      0.180D-01-0.113D-01-0.978D-01-0.850D-01 0.344D+00 0.831D+00
 Gap=     0.255 Goal=   None    Shift=    0.000
 RMSDP=7.29D-07 MaxDP=6.56D-05 DE=-8.20D-09 OVMax= 2.59D-05

 Cycle  13  Pass 1  IDiag  1:
 RMSU=  3.33D-07    CP:  7.06D-01  2.18D+00  9.19D-01  1.16D+00  1.39D+00
                    CP:  1.43D+00  1.19D+00  1.42D+00  1.32D+00  1.57D+00
                    CP:  1.45D+00  1.50D+00
 E= -1143.54591602249     Delta-E=       -0.000000001932 Rises=F Damp=F
 DIIS: error= 7.00D-07 at cycle  13 NSaved=  13.
 NSaved=13 IEnMin=13 EnMin= -1143.54591602249     IErMin=13 ErrMin= 7.00D-07
 ErrMax= 7.00D-07  0.00D+00 EMaxC= 1.00D-01 BMatC= 1.11D-10 BMatP= 5.38D-10
 IDIUse=1 WtCom= 1.00D+00 WtEn= 0.00D+00
 Coeff-Com: -0.241D-04 0.523D-04 0.457D-04-0.594D-04-0.981D-03 0.170D-03
 Coeff-Com:  0.618D-02 0.610D-02-0.181D-01-0.817D-01-0.330D-01 0.315D+00
 Coeff-Com:  0.806D+00
 Coeff:     -0.241D-04 0.523D-04 0.457D-04-0.594D-04-0.981D-03 0.170D-03
 Coeff:      0.618D-02 0.610D-02-0.181D-01-0.817D-01-0.330D-01 0.315D+00
 Coeff:      0.806D+00
 Gap=     0.255 Goal=   None    Shift=    0.000
 RMSDP=3.46D-07 MaxDP=2.90D-05 DE=-1.93D-09 OVMax= 1.06D-05

 Cycle  14  Pass 1  IDiag  1:
 RMSU=  9.48D-08    CP:  7.06D-01  2.18D+00  9.19D-01  1.16D+00  1.39D+00
                    CP:  1.43D+00  1.19D+00  1.42D+00  1.31D+00  1.60D+00
                    CP:  1.52D+00  1.80D+00  1.28D+00
 E= -1143.54591602261     Delta-E=       -0.000000000121 Rises=F Damp=F
 DIIS: error= 3.16D-07 at cycle  14 NSaved=  14.
 NSaved=14 IEnMin=14 EnMin= -1143.54591602261     IErMin=14 ErrMin= 3.16D-07
 ErrMax= 3.16D-07  0.00D+00 EMaxC= 1.00D-01 BMatC= 2.38D-11 BMatP= 1.11D-10
 IDIUse=1 WtCom= 1.00D+00 WtEn= 0.00D+00
 Coeff-Com: -0.443D-05 0.969D-05 0.261D-04 0.634D-05-0.202D-03-0.310D-03
 Coeff-Com: -0.151D-02 0.413D-02 0.135D-01-0.171D-01-0.881D-01-0.453D-01
 Coeff-Com:  0.328D+00 0.807D+00
 Coeff:     -0.443D-05 0.969D-05 0.261D-04 0.634D-05-0.202D-03-0.310D-03
 Coeff:     -0.151D-02 0.413D-02 0.135D-01-0.171D-01-0.881D-01-0.453D-01
 Coeff:      0.328D+00 0.807D+00
 Gap=     0.255 Goal=   None    Shift=    0.000
 RMSDP=2.24D-07 MaxDP=2.49D-05 DE=-1.21D-10 OVMax= 5.49D-06

 Cycle  15  Pass 1  IDiag  1:
 RMSU=  5.62D-08    CP:  7.06D-01  2.18D+00  9.19D-01  1.16D+00  1.39D+00
                    CP:  1.43D+00  1.19D+00  1.42D+00  1.30D+00  1.62D+00
                    CP:  1.55D+00  1.96D+00  1.47D+00  1.27D+00
 E= -1143.54591602262     Delta-E=       -0.000000000007 Rises=F Damp=F
 DIIS: error= 1.37D-07 at cycle  15 NSaved=  15.
 NSaved=15 IEnMin=15 EnMin= -1143.54591602262     IErMin=15 ErrMin= 1.37D-07
 ErrMax= 1.37D-07  0.00D+00 EMaxC= 1.00D-01 BMatC= 2.19D-12 BMatP= 2.38D-11
 IDIUse=1 WtCom= 1.00D+00 WtEn= 0.00D+00
 Coeff-Com:  0.285D-05-0.613D-05-0.941D-06 0.119D-04 0.104D-03-0.789D-04
 Coeff-Com: -0.109D-02-0.370D-03 0.576D-02 0.101D-01-0.857D-02-0.584D-01
 Coeff-Com: -0.832D-01 0.152D+00 0.983D+00
 Coeff:      0.285D-05-0.613D-05-0.941D-06 0.119D-04 0.104D-03-0.789D-04
 Coeff:     -0.109D-02-0.370D-03 0.576D-02 0.101D-01-0.857D-02-0.584D-01
 Coeff:     -0.832D-01 0.152D+00 0.983D+00
 Gap=     0.255 Goal=   None    Shift=    0.000
 RMSDP=5.73D-08 MaxDP=5.25D-06 DE=-7.28D-12 OVMax= 2.09D-06

 Cycle  16  Pass 1  IDiag  1:
 RMSU=  1.97D-08    CP:  7.06D-01  2.18D+00  9.19D-01  1.16D+00  1.39D+00
                    CP:  1.43D+00  1.19D+00  1.42D+00  1.30D+00  1.62D+00
                    CP:  1.56D+00  2.00D+00  1.54D+00  1.46D+00  1.19D+00
 E= -1143.54591602264     Delta-E=       -0.000000000021 Rises=F Damp=F
 DIIS: error= 4.33D-08 at cycle  16 NSaved=  16.
 NSaved=16 IEnMin=16 EnMin= -1143.54591602264     IErMin=16 ErrMin= 4.33D-08
 ErrMax= 4.33D-08  0.00D+00 EMaxC= 1.00D-01 BMatC= 4.40D-13 BMatP= 2.19D-12
 IDIUse=1 WtCom= 1.00D+00 WtEn= 0.00D+00
 Coeff-Com:  0.120D-05-0.260D-05-0.254D-05 0.496D-05 0.550D-04 0.477D-05
 Coeff-Com: -0.115D-03-0.784D-03 0.984D-04 0.555D-02 0.873D-02-0.123D-01
 Coeff-Com: -0.720D-01-0.599D-01 0.329D+00 0.801D+00
 Coeff:      0.120D-05-0.260D-05-0.254D-05 0.496D-05 0.550D-04 0.477D-05
 Coeff:     -0.115D-03-0.784D-03 0.984D-04 0.555D-02 0.873D-02-0.123D-01
 Coeff:     -0.720D-01-0.599D-01 0.329D+00 0.801D+00
 Gap=     0.255 Goal=   None    Shift=    0.000
 RMSDP=1.75D-08 MaxDP=1.07D-06 DE=-2.09D-11 OVMax= 6.20D-07

 Cycle  17  Pass 1  IDiag  1:
 RMSU=  7.53D-09    CP:  7.06D-01  2.18D+00  9.19D-01  1.16D+00  1.39D+00
                    CP:  1.43D+00  1.19D+00  1.42D+00  1.30D+00  1.62D+00
                    CP:  1.56D+00  2.01D+00  1.55D+00  1.54D+00  1.30D+00
                    CP:  1.09D+00
 E= -1143.54591602267     Delta-E=       -0.000000000032 Rises=F Damp=F
 DIIS: error= 1.75D-08 at cycle  17 NSaved=  17.
 NSaved=17 IEnMin=17 EnMin= -1143.54591602267     IErMin=17 ErrMin= 1.75D-08
 ErrMax= 1.75D-08  0.00D+00 EMaxC= 1.00D-01 BMatC= 4.96D-14 BMatP= 4.40D-13
 IDIUse=1 WtCom= 1.00D+00 WtEn= 0.00D+00
 Coeff-Com:  0.955D-07-0.194D-06-0.934D-06-0.978D-06-0.147D-05 0.191D-04
 Coeff-Com:  0.173D-03-0.188D-03-0.973D-03-0.129D-03 0.316D-02 0.682D-02
 Coeff-Com: -0.298D-02-0.423D-01-0.859D-01 0.145D+00 0.977D+00
 Coeff:      0.955D-07-0.194D-06-0.934D-06-0.978D-06-0.147D-05 0.191D-04
 Coeff:      0.173D-03-0.188D-03-0.973D-03-0.129D-03 0.316D-02 0.682D-02
 Coeff:     -0.298D-02-0.423D-01-0.859D-01 0.145D+00 0.977D+00
 Gap=     0.255 Goal=   None    Shift=    0.000
 RMSDP=9.07D-09 MaxDP=7.94D-07 DE=-3.23D-11 OVMax= 2.96D-07

 Error on total polarization charges =  0.02899
 SCF Done:  E(RCAM-B3LYP) =  -1143.54591602     A.U. after   17 cycles
            NFock= 17  Conv=0.91D-08     -V/T= 2.0037
 KE= 1.139289878660D+03 PE=-6.773340137692D+03 EE= 2.459977846694D+03
 Leave Link  502 at Mon Feb 17 09:31:37 2020, MaxMem=  6710886400 cpu:      4549.9
 (Enter /opt/sys/apps/gaussian09/D.01/g09/l801.exe)
 DoSCS=F DFT=T ScalE2(SS,OS)=  1.000000  1.000000
 ExpMin= 3.60D-02 ExpMax= 8.59D+03 ExpMxC= 1.30D+03 IAcc=3 IRadAn=         5 AccDes= 0.00D+00
 HarFok:  IExCor=  205 AccDes= 0.00D+00 IRadAn=         5 IDoV=-2 UseB2=F ITyADJ=14
 ICtDFT= 12500011 ScaDFX=  1.000000  1.000000  1.000000  1.000000
 Largest valence mixing into a core orbital is  4.76D-05
 Largest core mixing into a valence orbital is  1.26D-05
 Range of M.O.s used for correlation:    26   611
 NBasis=   620 NAE=    86 NBE=    86 NFC=    25 NFV=     0
 NROrb=    586 NOA=    61 NOB=    61 NVA=   525 NVB=   525

 **** Warning!!: The largest alpha MO coefficient is  0.15741250D+03

 Leave Link  801 at Mon Feb 17 09:31:38 2020, MaxMem=  6710886400 cpu:         3.5
 (Enter /opt/sys/apps/gaussian09/D.01/g09/l914.exe)
 RHF ground state
 MDV=  6710886400 DFT=T DoStab=F Mixed=T DoRPA=T DoScal=F NonHer=T
 Would need an additional        106167300000 words for in-memory AO integral storage.
 NEqPCM:  Using non-equilibrium solvation (IEInf=1, Eps=  35.6880, EpsInf=   1.8069)
 Inv3:  Mode=1 IEnd=    25351947.
 Iteration    1 A*A^-1 deviation from unit magnitude is 7.33D-15 for   2877.
 Iteration    1 A*A^-1 deviation from orthogonality  is 5.20D-15 for   2877   1768.
 Iteration    1 A^-1*A deviation from unit magnitude is 6.88D-15 for   2877.
 Iteration    1 A^-1*A deviation from orthogonality  is 2.27D-15 for   2906   1566.
 Making orbital integer symmetry assigments:
    40 initial guesses have been made.
 Convergence on wavefunction:    0.000001000000000
 Davidson Disk Diagonalization:  ConvIn= 1.00D-06 SkipCon=T Conv= 1.00D-06.
 Max sub-space:   200 roots to seek:    40 dimension of matrix:        64050
 Iteration     1 Dimension    40 NMult     0 NNew     40
 CISAX will form    40 AO SS matrices at one time.
 NMat=    40 NSing=    40 JSym2X= 0.
 FoFJK:  IHMeth= 1 ICntrl=       0 DoSepK=T KAlg= 0 I1Cent=   0 FoldK=F
 IRaf=         1 NMat=  80 IRICut=       1 DoRegI=T DoRafI=F ISym2E= 0.
 New state      2 was old state      6
 New state      3 was old state     10
 New state      4 was old state      2
 New state      5 was old state      4
 New state      6 was old state     15
 New state      7 was old state      9
 New state      8 was old state     23
 New state      9 was old state      5
 New state     10 was old state     19
 Excitation Energies [eV] at current iteration:
 Root      1 :     3.721325977037871
 Root      2 :     4.829199092771635
 Root      3 :     5.310381600777821
 Root      4 :     5.375919179548479
 Root      5 :     5.543765170331350
 Root      6 :     5.616708475584175
 Root      7 :     5.660574911506380
 Root      8 :     5.672559744312035
 Root      9 :     5.776564810782030
 Root     10 :     5.809205058348875
 Root     11 :     5.853529963221652
 Root     12 :     5.949668113556684
 Root     13 :     6.012686864195494
 Root     14 :     6.055267241158184
 Root     15 :     6.113307121453814
 Root     16 :     6.170543285346140
 Root     17 :     6.315987420537555
 Root     18 :     6.342677997484921
 Root     19 :     6.438593644282875
 Root     20 :     6.457182728749491
 Root     21 :     6.494580903611558
 Root     22 :     6.526885704602143
 Root     23 :     6.611511036829495
 Root     24 :     6.791508576242771
 Root     25 :     6.905018092245919
 Root     26 :     6.915130973073292
 Root     27 :     7.043310625692847
 Root     28 :     7.062844654880226
 Root     29 :     7.258026184541084
 Root     30 :     7.354203812715196
 Root     31 :     7.418480463386723
 Root     32 :     7.514027997443145
 Root     33 :     7.588925269179303
 Root     34 :     7.619196209078000
 Root     35 :     7.699318070130462
 Root     36 :     7.729438459858082
 Root     37 :     7.756951301060477
 Root     38 :     8.047199285283568
 Root     39 :     8.108886410655778
 Root     40 :     8.331398906136407
 Iteration     2 Dimension    60 NMult    40 NNew     20
 CISAX will form    20 AO SS matrices at one time.
 NMat=    20 NSing=    20 JSym2X= 0.
 Root      1 not converged, maximum delta is    0.077164829042451
 Root      2 not converged, maximum delta is    0.086459330025068
 Root      3 not converged, maximum delta is    0.131962740270031
 New state      4 was old state     10
 Root      4 not converged, maximum delta is    0.233887562573461
 New state      5 was old state      6
 Root      5 not converged, maximum delta is    0.139754456085019
 New state      6 was old state      8
 Root      6 not converged, maximum delta is    0.188091287956558
 New state      7 was old state      4
 Root      7 not converged, maximum delta is    0.129197657439326
 New state      8 was old state      5
 Root      8 not converged, maximum delta is    0.328103278011851
 Root      9 not converged, maximum delta is    0.152277608661324
 New state     10 was old state      7
 Root     10 not converged, maximum delta is    0.391990193120826
 Excitation Energies [eV] at current iteration:
 Root      1 :     3.090761071367520   Change is   -0.630564905670351
 Root      2 :     4.335700656471121   Change is   -0.493498436300513
 Root      3 :     4.778686921440986   Change is   -0.531694679336835
 Root      4 :     4.909679061558610   Change is   -0.899525996790265
 Root      5 :     4.948500596074641   Change is   -0.668207879509534
 Root      6 :     5.012641009930196   Change is   -0.659918734381839
 Root      7 :     5.067597947610744   Change is   -0.308321231937735
 Root      8 :     5.117961940042695   Change is   -0.425803230288656
 Root      9 :     5.414735955332563   Change is   -0.361828855449468
 Root     10 :     5.456634415884016   Change is   -0.203940495622363
 Iteration     3 Dimension    80 NMult    60 NNew     20
 CISAX will form    20 AO SS matrices at one time.
 NMat=    20 NSing=    20 JSym2X= 0.
 Root      1 not converged, maximum delta is    0.023108815081805
 Root      2 not converged, maximum delta is    0.019435772304396
 Root      3 not converged, maximum delta is    0.042049244364122
 New state      4 was old state      5
 Root      4 not converged, maximum delta is    0.116822055578775
 New state      5 was old state      4
 Root      5 not converged, maximum delta is    0.024900723107817
 Root      6 not converged, maximum delta is    0.075662783128316
 New state      7 was old state      8
 Root      7 not converged, maximum delta is    0.082848278864618
 New state      8 was old state      7
 Root      8 not converged, maximum delta is    0.044615116767806
 Root      9 not converged, maximum delta is    0.046322713160162
 Root     10 not converged, maximum delta is    0.042271689818649
 Excitation Energies [eV] at current iteration:
 Root      1 :     3.036707573616900   Change is   -0.054053497750619
 Root      2 :     4.295335137067756   Change is   -0.040365519403365
 Root      3 :     4.717590349388332   Change is   -0.061096572052654
 Root      4 :     4.752279318194043   Change is   -0.196221277880598
 Root      5 :     4.784307103377885   Change is   -0.125371958180725
 Root      6 :     4.900160567296102   Change is   -0.112480442634094
 Root      7 :     5.034099378656588   Change is   -0.083862561386107
 Root      8 :     5.045403340369664   Change is   -0.022194607241079
 Root      9 :     5.376979239996154   Change is   -0.037756715336408
 Root     10 :     5.441601106788699   Change is   -0.015033309095317
 Iteration     4 Dimension   100 NMult    80 NNew     20
 CISAX will form    20 AO SS matrices at one time.
 NMat=    20 NSing=    20 JSym2X= 0.
 Root      1 not converged, maximum delta is    0.012613497630002
 Root      2 not converged, maximum delta is    0.004511481203189
 Root      3 not converged, maximum delta is    0.016684062814643
 Root      4 not converged, maximum delta is    0.037972697896728
 Root      5 not converged, maximum delta is    0.005790285597178
 Root      6 not converged, maximum delta is    0.021304656829432
 Root      7 not converged, maximum delta is    0.026566824160191
 Root      8 not converged, maximum delta is    0.017654009928739
 Root      9 not converged, maximum delta is    0.015864545099200
 Root     10 not converged, maximum delta is    0.058575086625288
 Excitation Energies [eV] at current iteration:
 Root      1 :     3.024734451799842   Change is   -0.011973121817058
 Root      2 :     4.289795251175645   Change is   -0.005539885892111
 Root      3 :     4.706778568865636   Change is   -0.010811780522695
 Root      4 :     4.718020786780749   Change is   -0.034258531413294
 Root      5 :     4.776911026936669   Change is   -0.007396076441217
 Root      6 :     4.885917014864784   Change is   -0.014243552431318
 Root      7 :     5.019602370421026   Change is   -0.014497008235562
 Root      8 :     5.043929732519056   Change is   -0.001473607850609
 Root      9 :     5.372358185355717   Change is   -0.004621054640438
 Root     10 :     5.419752322083589   Change is   -0.021848784705110
 Iteration     5 Dimension   120 NMult   100 NNew     20
 CISAX will form    20 AO SS matrices at one time.
 NMat=    20 NSing=    20 JSym2X= 0.
 Root      1 not converged, maximum delta is    0.001868989352736
 Root      2 not converged, maximum delta is    0.002166287048281
 Root      3 not converged, maximum delta is    0.004913201895223
 Root      4 not converged, maximum delta is    0.006053543187135
 Root      5 not converged, maximum delta is    0.003552281157836
 Root      6 not converged, maximum delta is    0.010326443054031
 Root      7 not converged, maximum delta is    0.006788636935159
 Root      8 not converged, maximum delta is    0.001360944860335
 Root      9 not converged, maximum delta is    0.017303831667523
 Root     10 not converged, maximum delta is    0.098033468147368
 Excitation Energies [eV] at current iteration:
 Root      1 :     3.023946706869940   Change is   -0.000787744929902
 Root      2 :     4.289201352468245   Change is   -0.000593898707400
 Root      3 :     4.705181794055951   Change is   -0.001596774809686
 Root      4 :     4.714907816967080   Change is   -0.003112969813670
 Root      5 :     4.775844266096779   Change is   -0.001066760839890
 Root      6 :     4.882628569054462   Change is   -0.003288445810322
 Root      7 :     5.017437229349759   Change is   -0.002165141071267
 Root      8 :     5.043750178206627   Change is   -0.000179554312428
 Root      9 :     5.371505035432770   Change is   -0.000853149922947
 Root     10 :     5.380879854812787   Change is   -0.038872467270802
 Iteration     6 Dimension   140 NMult   120 NNew     20
 CISAX will form    20 AO SS matrices at one time.
 NMat=    20 NSing=    20 JSym2X= 0.
 Root      1 not converged, maximum delta is    0.000459178516936
 Root      2 not converged, maximum delta is    0.000460542610728
 Root      3 not converged, maximum delta is    0.001133997841311
 Root      4 not converged, maximum delta is    0.002057000181839
 Root      5 not converged, maximum delta is    0.002241464130637
 Root      6 not converged, maximum delta is    0.005201634115483
 Root      7 not converged, maximum delta is    0.004738085339935
 Root      8 not converged, maximum delta is    0.000725848535979
 New state      9 was old state     10
 Root      9 not converged, maximum delta is    0.109373262363559
 New state     10 was old state      9
 Root     10 not converged, maximum delta is    0.029623764445870
 Excitation Energies [eV] at current iteration:
 Root      1 :     3.023902420683656   Change is   -0.000044286186284
 Root      2 :     4.289139957619383   Change is   -0.000061394848862
 Root      3 :     4.704998086086354   Change is   -0.000183707969597
 Root      4 :     4.714556046325011   Change is   -0.000351770642068
 Root      5 :     4.775658493538610   Change is   -0.000185772558168
 Root      6 :     4.882028115935956   Change is   -0.000600453118506
 Root      7 :     5.017040241307033   Change is   -0.000396988042727
 Root      8 :     5.043728861645085   Change is   -0.000021316561542
 Root      9 :     5.333346419157095   Change is   -0.047533435655692
 Root     10 :     5.371417055783932   Change is   -0.000087979648838
 Iteration     7 Dimension   160 NMult   140 NNew     20
 CISAX will form    20 AO SS matrices at one time.
 NMat=    20 NSing=    20 JSym2X= 0.
 Root      1 not converged, maximum delta is    0.000109760269158
 Root      2 not converged, maximum delta is    0.000264533590835
 Root      3 not converged, maximum delta is    0.000431519768751
 Root      4 not converged, maximum delta is    0.000807318017294
 Root      5 not converged, maximum delta is    0.000800705042005
 Root      6 not converged, maximum delta is    0.001132348981044
 Root      7 not converged, maximum delta is    0.002882518879918
 Root      8 not converged, maximum delta is    0.000218113565030
 Root      9 not converged, maximum delta is    0.057086393732045
 Root     10 not converged, maximum delta is    0.002298875382237
 Excitation Energies [eV] at current iteration:
 Root      1 :     3.023898903715839   Change is   -0.000003516967817
 Root      2 :     4.289132720276491   Change is   -0.000007237342892
 Root      3 :     4.704976808901945   Change is   -0.000021277184409
 Root      4 :     4.714511577368172   Change is   -0.000044468956840
 Root      5 :     4.775634598009328   Change is   -0.000023895529282
 Root      6 :     4.881948094184089   Change is   -0.000080021751866
 Root      7 :     5.016921645040664   Change is   -0.000118596266368
 Root      8 :     5.043725639470040   Change is   -0.000003222175045
 Root      9 :     5.304704890244468   Change is   -0.028641528912627
 Root     10 :     5.371389564562111   Change is   -0.000027491221821
 Iteration     8 Dimension   180 NMult   160 NNew     20
 CISAX will form    20 AO SS matrices at one time.
 NMat=    20 NSing=    20 JSym2X= 0.
 Root      1 not converged, maximum delta is    0.000035904799965
 Root      2 not converged, maximum delta is    0.000111728117278
 Root      3 not converged, maximum delta is    0.000188262613980
 Root      4 not converged, maximum delta is    0.000262843207521
 Root      5 not converged, maximum delta is    0.000114143971539
 Root      6 not converged, maximum delta is    0.001671806447154
 Root      7 not converged, maximum delta is    0.000782725747467
 Root      8 not converged, maximum delta is    0.000513992762896
 Root      9 not converged, maximum delta is    0.062146436018374
 Root     10 not converged, maximum delta is    0.002152131380856
 Excitation Energies [eV] at current iteration:
 Root      1 :     3.023898598262118   Change is   -0.000000305453721
 Root      2 :     4.289131790594797   Change is   -0.000000929681694
 Root      3 :     4.704973897153220   Change is   -0.000002911748725
 Root      4 :     4.714506467508747   Change is   -0.000005109859424
 Root      5 :     4.775632292497249   Change is   -0.000002305512080
 Root      6 :     4.881922019637503   Change is   -0.000026074546587
 Root      7 :     5.016898499013976   Change is   -0.000023146026688
 Root      8 :     5.043723873237743   Change is   -0.000001766232297
 Root      9 :     5.294388829084506   Change is   -0.010316061159963
 Root     10 :     5.371375252927411   Change is   -0.000014311634700
 Iteration     9 Dimension   200 NMult   180 NNew     20
 CISAX will form    20 AO SS matrices at one time.
 NMat=    20 NSing=    20 JSym2X= 0.
 Root      1 not converged, maximum delta is    0.000009407105198
 Root      2 not converged, maximum delta is    0.000024405178331
 Root      3 not converged, maximum delta is    0.000047004034785
 Root      4 not converged, maximum delta is    0.000192031374632
 Root      5 not converged, maximum delta is    0.000024501354077
 Root      6 not converged, maximum delta is    0.001356370645181
 Root      7 not converged, maximum delta is    0.001009172729095
 Root      8 not converged, maximum delta is    0.000786891967945
 Root      9 not converged, maximum delta is    0.277024927965305
 No map to state     10
 Excitation Energies [eV] at current iteration:
 Root      1 :     3.023898574210830   Change is   -0.000000024051287
 Root      2 :     4.289131691112047   Change is   -0.000000099482750
 Root      3 :     4.704973558224131   Change is   -0.000000338929089
 Root      4 :     4.714505627769721   Change is   -0.000000839739026
 Root      5 :     4.775632116909177   Change is   -0.000000175588071
 Root      6 :     4.881908753103372   Change is   -0.000013266534131
 Root      7 :     5.016892718142786   Change is   -0.000005780871191
 Root      8 :     5.043721787847321   Change is   -0.000002085390422
 Root      9 :     5.225905932460799   Change is   -0.068482896623706
 Root     10 :     5.306090533073610
 Davidson failed to converge within maximum sub-space dimensions.
  Restart with updated initial guess:
 Iteration     1 Dimension    40 NMult   200 NNew     40
 CISAX will form    40 AO SS matrices at one time.
 NMat=    40 NSing=    40 JSym2X= 0.
 Excitation Energies [eV] at current iteration:
 Root      1 :     3.023898573589741
 Root      2 :     4.289131686117649
 Root      3 :     4.704973534405958
 Root      4 :     4.714505520333572
 Root      5 :     4.775632108006689
 Root      6 :     4.881906885968804
 Root      7 :     5.016891683410000
 Root      8 :     5.043721203793650
 Root      9 :     5.203189833607203
 Root     10 :     5.303628255697542
 Iteration     2 Dimension    60 NMult   240 NNew     20
 CISAX will form    20 AO SS matrices at one time.
 NMat=    20 NSing=    20 JSym2X= 0.
 Root      1 has converged.
 Root      2 not converged, maximum delta is    0.000001056944522
 Root      3 not converged, maximum delta is    0.000004103867224
 Root      4 not converged, maximum delta is    0.000017060354958
 Root      5 not converged, maximum delta is    0.000003411007008
 Root      6 not converged, maximum delta is    0.000065737499609
 Root      7 not converged, maximum delta is    0.000060644383645
 Root      8 not converged, maximum delta is    0.000085379270365
 Root      9 not converged, maximum delta is    0.007016968996487
 Root     10 not converged, maximum delta is    0.005771323995611
 Excitation Energies [eV] at current iteration:
 Root      1 :     3.023898573508563   Change is   -0.000000000081177
 Root      2 :     4.289131685430530   Change is   -0.000000000687118
 Root      3 :     4.704973530969140   Change is   -0.000000003436817
 Root      4 :     4.714505494496816   Change is   -0.000000025836755
 Root      5 :     4.775632106884959   Change is   -0.000000001121730
 Root      6 :     4.881906534149069   Change is   -0.000000351819734
 Root      7 :     5.016891417308553   Change is   -0.000000266101446
 Root      8 :     5.043721028650012   Change is   -0.000000175143638
 Root      9 :     5.197952918023908   Change is   -0.005236915583295
 Root     10 :     5.303174809803692   Change is   -0.000453445893850
 Iteration     3 Dimension    78 NMult   260 NNew     18
 CISAX will form    18 AO SS matrices at one time.
 NMat=    18 NSing=    18 JSym2X= 0.
 Root      1 has converged.
 Root      2 has converged.
 Root      3 not converged, maximum delta is    0.000002633763442
 Root      4 not converged, maximum delta is    0.000015262817076
 Root      5 not converged, maximum delta is    0.000002186236996
 Root      6 not converged, maximum delta is    0.000032065296814
 Root      7 not converged, maximum delta is    0.000036329453241
 Root      8 not converged, maximum delta is    0.000078640890035
 Root      9 not converged, maximum delta is    0.005522671945238
 Root     10 not converged, maximum delta is    0.001556239726044
 Excitation Energies [eV] at current iteration:
 Root      1 :     3.023898573505166   Change is   -0.000000000003398
 Root      2 :     4.289131685372974   Change is   -0.000000000057557
 Root      3 :     4.704973530224358   Change is   -0.000000000744781
 Root      4 :     4.714505487846028   Change is   -0.000000006650788
 Root      5 :     4.775632106678598   Change is   -0.000000000206361
 Root      6 :     4.881906461420754   Change is   -0.000000072728315
 Root      7 :     5.016891351754782   Change is   -0.000000065553772
 Root      8 :     5.043720950136960   Change is   -0.000000078513052
 Root      9 :     5.196458288810898   Change is   -0.001494629213010
 Root     10 :     5.303053621738561   Change is   -0.000121188065130
 Iteration     4 Dimension    94 NMult   278 NNew     16
 CISAX will form    16 AO SS matrices at one time.
 NMat=    16 NSing=    16 JSym2X= 0.
 Root      1 has converged.
 Root      2 has converged.
 Root      3 not converged, maximum delta is    0.000001229343327
 Root      4 not converged, maximum delta is    0.000009570291868
 Root      5 has converged.
 Root      6 not converged, maximum delta is    0.000033832964818
 Root      7 not converged, maximum delta is    0.000030286286610
 Root      8 not converged, maximum delta is    0.000069184456476
 Root      9 not converged, maximum delta is    0.007358580169533
 Root     10 not converged, maximum delta is    0.001516782595607
 Excitation Energies [eV] at current iteration:
 Root      1 :     3.023898573502529   Change is   -0.000000000002637
 Root      2 :     4.289131685375753   Change is    0.000000000002779
 Root      3 :     4.704973530081801   Change is   -0.000000000142558
 Root      4 :     4.714505485875370   Change is   -0.000000001970659
 Root      5 :     4.775632106633721   Change is   -0.000000000044877
 Root      6 :     4.881906442147709   Change is   -0.000000019273045
 Root      7 :     5.016891331764733   Change is   -0.000000019990048
 Root      8 :     5.043720907188756   Change is   -0.000000042948204
 Root      9 :     5.195819644882545   Change is   -0.000638643928353
 Root     10 :     5.303012026099863   Change is   -0.000041595638699
 Iteration     5 Dimension   108 NMult   294 NNew     14
 CISAX will form    14 AO SS matrices at one time.
 NMat=    14 NSing=    14 JSym2X= 0.
 Root      1 has converged.
 Root      2 has converged.
 Root      3 has converged.
 Root      4 not converged, maximum delta is    0.000003304532420
 Root      5 has converged.
 Root      6 not converged, maximum delta is    0.000024329743711
 Root      7 not converged, maximum delta is    0.000021264002231
 Root      8 not converged, maximum delta is    0.000032390731845
 Root      9 not converged, maximum delta is    0.006776089173767
 Root     10 not converged, maximum delta is    0.001716356664855
 Excitation Energies [eV] at current iteration:
 Root      1 :     3.023898573499103   Change is   -0.000000000003426
 Root      2 :     4.289131685362605   Change is   -0.000000000013148
 Root      3 :     4.704973530044828   Change is   -0.000000000036972
 Root      4 :     4.714505485412692   Change is   -0.000000000462678
 Root      5 :     4.775632106632808   Change is   -0.000000000000912
 Root      6 :     4.881906436168673   Change is   -0.000000005979035
 Root      7 :     5.016891325675887   Change is   -0.000000006088846
 Root      8 :     5.043720892265311   Change is   -0.000000014923445
 Root      9 :     5.195545437642971   Change is   -0.000274207239573
 Root     10 :     5.302993249732441   Change is   -0.000018776367422
 Iteration     6 Dimension   120 NMult   308 NNew     12
 CISAX will form    12 AO SS matrices at one time.
 NMat=    12 NSing=    12 JSym2X= 0.
 Root      1 has converged.
 Root      2 has converged.
 Root      3 has converged.
 Root      4 not converged, maximum delta is    0.000001356675730
 Root      5 has converged.
 Root      6 not converged, maximum delta is    0.000009574669430
 Root      7 not converged, maximum delta is    0.000009684300322
 Root      8 not converged, maximum delta is    0.000009740592301
 Root      9 not converged, maximum delta is    0.004082237115495
 Root     10 not converged, maximum delta is    0.001421855369341
 Excitation Energies [eV] at current iteration:
 Root      1 :     3.023898573507204   Change is    0.000000000008101
 Root      2 :     4.289131685379644   Change is    0.000000000017039
 Root      3 :     4.704973530032651   Change is   -0.000000000012178
 Root      4 :     4.714505485314050   Change is   -0.000000000098642
 Root      5 :     4.775632106632861   Change is    0.000000000000052
 Root      6 :     4.881906434714236   Change is   -0.000000001454438
 Root      7 :     5.016891323881523   Change is   -0.000000001794365
 Root      8 :     5.043720888521565   Change is   -0.000000003743745
 Root      9 :     5.195434221564916   Change is   -0.000111216078055
 Root     10 :     5.302983452854201   Change is   -0.000009796878239
 Iteration     7 Dimension   132 NMult   320 NNew     12
 CISAX will form    12 AO SS matrices at one time.
 NMat=    12 NSing=    12 JSym2X= 0.
 Root      1 has converged.
 Root      2 has converged.
 Root      3 has converged.
 Root      4 has converged.
 Root      5 has converged.
 Root      6 not converged, maximum delta is    0.000002281513808
 Root      7 not converged, maximum delta is    0.000003521082126
 Root      8 not converged, maximum delta is    0.000004335077303
 Root      9 not converged, maximum delta is    0.001421439534165
 Root     10 not converged, maximum delta is    0.000709410652066
 Excitation Energies [eV] at current iteration:
 Root      1 :     3.023898573487331   Change is   -0.000000000019873
 Root      2 :     4.289131685389514   Change is    0.000000000009871
 Root      3 :     4.704973530035097   Change is    0.000000000002446
 Root      4 :     4.714505485287092   Change is   -0.000000000026958
 Root      5 :     4.775632106632929   Change is    0.000000000000069
 Root      6 :     4.881906434414902   Change is   -0.000000000299334
 Root      7 :     5.016891323367767   Change is   -0.000000000513755
 Root      8 :     5.043720887624877   Change is   -0.000000000896688
 Root      9 :     5.195393669322035   Change is   -0.000040552242881
 Root     10 :     5.302978258848952   Change is   -0.000005194005249
 Iteration     8 Dimension   142 NMult   332 NNew     10
 CISAX will form    10 AO SS matrices at one time.
 NMat=    10 NSing=    10 JSym2X= 0.
 Root      1 has converged.
 Root      2 has converged.
 Root      3 has converged.
 Root      4 has converged.
 Root      5 has converged.
 Root      6 not converged, maximum delta is    0.000001260333818
 Root      7 not converged, maximum delta is    0.000001827305970
 Root      8 not converged, maximum delta is    0.000001482436978
 Root      9 not converged, maximum delta is    0.000686860001111
 Root     10 not converged, maximum delta is    0.000435826855712
 Excitation Energies [eV] at current iteration:
 Root      1 :     3.023898573501767   Change is    0.000000000014436
 Root      2 :     4.289131685382039   Change is   -0.000000000007475
 Root      3 :     4.704973530031986   Change is   -0.000000000003110
 Root      4 :     4.714505485285663   Change is   -0.000000000001430
 Root      5 :     4.775632106631449   Change is   -0.000000000001480
 Root      6 :     4.881906434345642   Change is   -0.000000000069260
 Root      7 :     5.016891323232107   Change is   -0.000000000135660
 Root      8 :     5.043720887453591   Change is   -0.000000000171286
 Root      9 :     5.195383210173756   Change is   -0.000010459148279
 Root     10 :     5.302976272749548   Change is   -0.000001986099404
 Iteration     9 Dimension   152 NMult   342 NNew     10
 CISAX will form    10 AO SS matrices at one time.
 NMat=    10 NSing=    10 JSym2X= 0.
 Root      1 has converged.
 Root      2 has converged.
 Root      3 has converged.
 Root      4 has converged.
 Root      5 has converged.
 Root      6 has converged.
 Root      7 not converged, maximum delta is    0.000001348145433
 Root      8 has converged.
 Root      9 not converged, maximum delta is    0.000491726802080
 Root     10 not converged, maximum delta is    0.000367333665781
 Excitation Energies [eV] at current iteration:
 Root      1 :     3.023898573512016   Change is    0.000000000010249
 Root      2 :     4.289131685374756   Change is   -0.000000000007283
 Root      3 :     4.704973530028963   Change is   -0.000000000003023
 Root      4 :     4.714505485284721   Change is   -0.000000000000942
 Root      5 :     4.775632106631622   Change is    0.000000000000172
 Root      6 :     4.881906434329106   Change is   -0.000000000016537
 Root      7 :     5.016891323206135   Change is   -0.000000000025972
 Root      8 :     5.043720887423438   Change is   -0.000000000030153
 Root      9 :     5.195379998532649   Change is   -0.000003211641108
 Root     10 :     5.302975334349391   Change is   -0.000000938400157
 Iteration    10 Dimension   158 NMult   352 NNew      6
 CISAX will form     6 AO SS matrices at one time.
 NMat=     6 NSing=     6 JSym2X= 0.
 Root      1 has converged.
 Root      2 has converged.
 Root      3 has converged.
 Root      4 has converged.
 Root      5 has converged.
 Root      6 has converged.
 Root      7 has converged.
 Root      8 has converged.
 Root      9 not converged, maximum delta is    0.000343836115114
 Root     10 not converged, maximum delta is    0.000281124027215
 Excitation Energies [eV] at current iteration:
 Root      1 :     3.023898573516747   Change is    0.000000000004731
 Root      2 :     4.289131685377995   Change is    0.000000000003239
 Root      3 :     4.704973530032738   Change is    0.000000000003774
 Root      4 :     4.714505485284076   Change is   -0.000000000000645
 Root      5 :     4.775632106632379   Change is    0.000000000000758
 Root      6 :     4.881906434323482   Change is   -0.000000000005624
 Root      7 :     5.016891323187029   Change is   -0.000000000019106
 Root      8 :     5.043720887422183   Change is   -0.000000000001255
 Root      9 :     5.195378855256743   Change is   -0.000001143275906
 Root     10 :     5.302974883432779   Change is   -0.000000450916611
 Iteration    11 Dimension   162 NMult   358 NNew      4
 CISAX will form     4 AO SS matrices at one time.
 NMat=     4 NSing=     4 JSym2X= 0.
 Root      1 has converged.
 Root      2 has converged.
 Root      3 has converged.
 Root      4 has converged.
 Root      5 has converged.
 Root      6 has converged.
 Root      7 has converged.
 Root      8 has converged.
 Root      9 not converged, maximum delta is    0.000293477336582
 Root     10 not converged, maximum delta is    0.000259404938724
 Excitation Energies [eV] at current iteration:
 Root      1 :     3.023898573516339   Change is   -0.000000000000408
 Root      2 :     4.289131685383266   Change is    0.000000000005270
 Root      3 :     4.704973530037402   Change is    0.000000000004665
 Root      4 :     4.714505485283658   Change is   -0.000000000000418
 Root      5 :     4.775632106632017   Change is   -0.000000000000362
 Root      6 :     4.881906434324492   Change is    0.000000000001010
 Root      7 :     5.016891323185161   Change is   -0.000000000001869
 Root      8 :     5.043720887421678   Change is   -0.000000000000505
 Root      9 :     5.195378346347493   Change is   -0.000000508909250
 Root     10 :     5.302974641743119   Change is   -0.000000241689660
 Iteration    12 Dimension   166 NMult   362 NNew      4
 CISAX will form     4 AO SS matrices at one time.
 NMat=     4 NSing=     4 JSym2X= 0.
 Root      1 has converged.
 Root      2 has converged.
 Root      3 has converged.
 Root      4 has converged.
 Root      5 has converged.
 Root      6 has converged.
 Root      7 has converged.
 Root      8 has converged.
 Root      9 not converged, maximum delta is    0.000282446167197
 Root     10 not converged, maximum delta is    0.000303822972375
 Excitation Energies [eV] at current iteration:
 Root      1 :     3.023898573511880   Change is   -0.000000000004459
 Root      2 :     4.289131685381579   Change is   -0.000000000001687
 Root      3 :     4.704973530035534   Change is   -0.000000000001869
 Root      4 :     4.714505485284652   Change is    0.000000000000994
 Root      5 :     4.775632106631432   Change is   -0.000000000000585
 Root      6 :     4.881906434321040   Change is   -0.000000000003452
 Root      7 :     5.016891323174526   Change is   -0.000000000010634
 Root      8 :     5.043720887421026   Change is   -0.000000000000652
 Root      9 :     5.195378034567854   Change is   -0.000000311779638
 Root     10 :     5.302974453699648   Change is   -0.000000188043471
 Iteration    13 Dimension   170 NMult   366 NNew      4
 CISAX will form     4 AO SS matrices at one time.
 NMat=     4 NSing=     4 JSym2X= 0.
 Root      1 has converged.
 Root      2 has converged.
 Root      3 has converged.
 Root      4 has converged.
 Root      5 has converged.
 Root      6 has converged.
 Root      7 has converged.
 Root      8 has converged.
 Root      9 not converged, maximum delta is    0.000183687586370
 Root     10 not converged, maximum delta is    0.000274826227401
 Excitation Energies [eV] at current iteration:
 Root      1 :     3.023898573521314   Change is    0.000000000009434
 Root      2 :     4.289131685385757   Change is    0.000000000004178
 Root      3 :     4.704973530036547   Change is    0.000000000001014
 Root      4 :     4.714505485285279   Change is    0.000000000000628
 Root      5 :     4.775632106631587   Change is    0.000000000000155
 Root      6 :     4.881906434320030   Change is   -0.000000000001011
 Root      7 :     5.016891323178033   Change is    0.000000000003507
 Root      8 :     5.043720887418091   Change is   -0.000000000002934
 Root      9 :     5.195377882190542   Change is   -0.000000152377313
 Root     10 :     5.302974319946161   Change is   -0.000000133753487
 Iteration    14 Dimension   174 NMult   370 NNew      4
 CISAX will form     4 AO SS matrices at one time.
 NMat=     4 NSing=     4 JSym2X= 0.
 Root      1 has converged.
 Root      2 has converged.
 Root      3 has converged.
 Root      4 has converged.
 Root      5 has converged.
 Root      6 has converged.
 Root      7 has converged.
 Root      8 has converged.
 Root      9 not converged, maximum delta is    0.000074641977088
 Root     10 not converged, maximum delta is    0.000149215999992
 Excitation Energies [eV] at current iteration:
 Root      1 :     3.023898573523625   Change is    0.000000000002311
 Root      2 :     4.289131685387540   Change is    0.000000000001782
 Root      3 :     4.704973530036616   Change is    0.000000000000069
 Root      4 :     4.714505485284861   Change is   -0.000000000000418
 Root      5 :     4.775632106630674   Change is   -0.000000000000912
 Root      6 :     4.881906434319323   Change is   -0.000000000000707
 Root      7 :     5.016891323179573   Change is    0.000000000001540
 Root      8 :     5.043720887419689   Change is    0.000000000001597
 Root      9 :     5.195377834456801   Change is   -0.000000047733740
 Root     10 :     5.302974259016150   Change is   -0.000000060930012
 Iteration    15 Dimension   178 NMult   374 NNew      4
 CISAX will form     4 AO SS matrices at one time.
 NMat=     4 NSing=     4 JSym2X= 0.
 Root      1 has converged.
 Root      2 has converged.
 Root      3 has converged.
 Root      4 has converged.
 Root      5 has converged.
 Root      6 has converged.
 Root      7 has converged.
 Root      8 has converged.
 Root      9 not converged, maximum delta is    0.000021590331975
 Root     10 not converged, maximum delta is    0.000050351011346
 Excitation Energies [eV] at current iteration:
 Root      1 :     3.023898573518649   Change is   -0.000000000004975
 Root      2 :     4.289131685384991   Change is   -0.000000000002549
 Root      3 :     4.704973530070233   Change is    0.000000000033617
 Root      4 :     4.714505485284983   Change is    0.000000000000122
 Root      5 :     4.775632106630227   Change is   -0.000000000000447
 Root      6 :     4.881906434320400   Change is    0.000000000001077
 Root      7 :     5.016891323180868   Change is    0.000000000001295
 Root      8 :     5.043720887421922   Change is    0.000000000002233
 Root      9 :     5.195377823994248   Change is   -0.000000010462554
 Root     10 :     5.302974241296183   Change is   -0.000000017719967
[...]
    25  H   -0.013086   0.000000  -0.106346  -0.001641   0.539579   0.000226
    26  H    0.000000  -0.012997  -0.001969  -0.102281   0.000256   0.536549
    27  H    0.002694   0.000004   0.166294  -0.002941  -0.228995  -0.008709
    28  H    0.000004   0.002627  -0.001688   0.157842  -0.008726  -0.219955
    29  H    0.000095   0.000088  -0.015950  -0.013671   0.006482   0.002149
    30  H   -0.000005  -0.000004   0.000790   0.000199  -0.000276   0.001429
    31  H    0.000000   0.000000  -0.000248  -0.000112  -0.000195  -0.000775
    32  H   -0.000001  -0.000001  -0.000552  -0.000319   0.002771   0.002158
    33  C    0.000328   0.000336   0.027619   0.005601  -0.040569   0.007652
    34  O    0.000000   0.000000   0.001653   0.002819  -0.008880  -0.011821
    35  O   -0.000026  -0.000034   0.007156   0.004889   0.019708   0.018332
               7          8          9         10         11         12
     1  O   -0.008925   0.000312  -0.037376   0.000920   0.110998   0.009360
     2  O    0.000301  -0.010726   0.000951  -0.038392   0.009457   0.113485
     3  C    5.762940  -0.663882  -0.864324  -2.924854  -4.991516   0.204123
     4  C   -0.621518   5.756121  -2.832591  -0.808366   0.075565  -5.058913
     5  C   -3.527688  -0.218924  -2.886453   0.463508   2.730272  -0.107834
     6  C   -0.238017  -3.466649   0.405403  -2.918734  -0.070730   2.804726
     7  C   13.586186  -1.515874   0.877181  -2.293798  -2.088678  -0.946928
     8  C   -1.515874  13.651404  -2.386409   0.947289  -1.022675  -2.218435
     9  C    0.877181  -2.386409  12.227269  -1.323951   0.061850  -0.474211
    10  C   -2.293798   0.947289  -1.323951  12.209241  -0.557531  -0.193037
    11  C   -2.088678  -1.022675   0.061850  -0.557531  12.583120   0.796582
    12  C   -0.946928  -2.218435  -0.474211  -0.193037   0.796582  12.659838
    13  C   -0.066711  -0.045734   0.076255  -0.010295  -0.859186  -0.018696
    14  C   -0.044459  -0.079569   0.002154   0.100838  -0.020037  -0.821324
    15  O   -0.015210  -0.015966   0.036003   0.035604   0.040035   0.039355
    16  C   -2.789281  -2.814601   2.606671   2.653885  -0.037634  -0.056564
    17  C   -0.037834   0.037644   0.231068   0.382356  -0.079816  -0.087547
    18  C    0.167517   0.146359  -0.143686  -0.205101  -0.490184  -0.470317
    19  C   -0.084341  -0.067847   0.019632  -0.047518   0.224475   0.221807
    20  C   -0.009236  -0.013018   0.094127   0.133304  -0.047026  -0.046702
    21  C    0.056153   0.082119  -0.222568  -0.222916  -0.232477  -0.214730
    22  C    0.073145   0.145812   0.255657   0.441915  -0.423214  -0.421548
    23  H    0.076208  -0.007624   0.022183  -0.040424  -0.090905  -0.012164
    24  H   -0.007000   0.075353  -0.039100   0.021052  -0.013390  -0.088990
    25  H   -0.133846   0.000264   0.065167   0.005917   0.035234  -0.006824
    26  H    0.000064  -0.123975   0.004386   0.063458  -0.007057   0.032579
    27  H    0.623520  -0.027232   0.029358  -0.077546  -0.029121  -0.012398
    28  H   -0.024582   0.610280  -0.070530   0.020239  -0.013005  -0.032991
    29  H    0.003598   0.001447   0.017411   0.020552  -0.034938  -0.036578
    30  H   -0.001754  -0.001689  -0.001282  -0.004375   0.005854   0.005638
    31  H   -0.000043  -0.000134  -0.000188   0.001008  -0.000615  -0.000524
    32  H    0.000259   0.000607  -0.004554  -0.003457  -0.000289  -0.000151
    33  C   -0.072731  -0.067752  -0.054025  -0.130587   0.192756   0.195719
    34  O    0.004173   0.006043   0.008450   0.014661  -0.007186  -0.006353
    35  O   -0.008983  -0.009340  -0.005703  -0.004282   0.058979   0.060992
              13         14         15         16         17         18
     1  O    0.448652  -0.000017  -0.003043   0.008044  -0.000072  -0.000576
     2  O   -0.000016   0.448146  -0.003068   0.008300  -0.000147  -0.000509
     3  C    0.621620  -0.001561  -0.401595  -3.238082  -0.097821  -0.100842
     4  C   -0.006837   0.563655  -0.399018  -3.155535  -0.006155  -0.119769
     5  C   -0.143505  -0.010503   0.012018  -0.123200  -0.429300   0.156196
     6  C   -0.010658  -0.154912   0.010414  -0.212298  -0.495763   0.177046
     7  C   -0.066711  -0.044459  -0.015210  -2.789281  -0.037834   0.167517
     8  C   -0.045734  -0.079569  -0.015966  -2.814601   0.037644   0.146359
     9  C    0.076255   0.002154   0.036003   2.606671   0.231068  -0.143686
    10  C   -0.010295   0.100838   0.035604   2.653885   0.382356  -0.205101
    11  C   -0.859186  -0.020037   0.040035  -0.037634  -0.079816  -0.490184
    12  C   -0.018696  -0.821324   0.039355  -0.056564  -0.087547  -0.470317
    13  C    7.107485  -0.013843   0.007192  -0.512107   0.037855  -0.042966
    14  C   -0.013843   7.089910   0.007638  -0.488241   0.042086  -0.047184
    15  O    0.007192   0.007638   8.479697   0.343004  -0.017335   0.000383
    16  C   -0.512107  -0.488241   0.343004  14.218427   1.321769  -1.630387
    17  C    0.037855   0.042086  -0.017335   1.321769   9.464540  -1.611071
    18  C   -0.042966  -0.047184   0.000383  -1.630387  -1.611071  10.490859
    19  C   -0.017125  -0.014632  -0.012529  -0.325028  -2.153800  -1.060088
    20  C   -0.002885  -0.003397   0.002363   0.325841   1.732081  -1.117377
    21  C    0.003339   0.000094   0.003473  -1.342216  -2.904808   3.310887
    22  C   -0.010581  -0.012634   0.026205   0.051301   0.914819  -1.031880
    23  H   -0.091504   0.004359  -0.023672  -0.029097  -0.002029   0.001801
    24  H    0.004505  -0.092362  -0.023696  -0.029061  -0.000934   0.001177
    25  H   -0.098849   0.000027   0.000740   0.037472  -0.004189   0.001803
    26  H    0.000006  -0.099633   0.000747   0.033548  -0.005041   0.002530
    27  H    0.030194   0.000149  -0.001542  -0.125795   0.034448   0.005322
    28  H    0.000174   0.030177  -0.001574  -0.117195   0.034812   0.006076
    29  H    0.000750  -0.000022   0.001489  -0.043167  -0.029238   0.532442
    30  H   -0.000093  -0.000010  -0.000278  -0.002305  -0.014002  -0.079416
    31  H    0.000051   0.000028   0.000024   0.011984   0.018996  -0.016422
    32  H    0.000093   0.000124   0.000009  -0.009638   0.010711   0.032050
    33  C   -0.001819  -0.001082  -0.012896   0.388132  -0.628921  -0.382004
    34  O   -0.000084  -0.000278   0.000007  -0.047937   0.044935   0.005577
    35  O    0.007253   0.007573  -0.006545  -0.086228  -0.018143  -0.072668
              19         20         21         22         23         24
     1  O   -0.000220   0.000008  -0.000013  -0.000506  -0.010509   0.000047
     2  O   -0.000194   0.000003  -0.000007  -0.000513   0.000048  -0.010432
     3  C    0.030979  -0.005781  -0.051031  -0.155149   0.612684  -0.002060
     4  C    0.017099  -0.000143  -0.049102  -0.084324  -0.003479   0.608908
     5  C    0.068732  -0.036171   0.136127   0.032261  -0.086057   0.003225
     6  C    0.113560  -0.054645   0.152780  -0.045350   0.003490  -0.084441
     7  C   -0.084341  -0.009236   0.056153   0.073145   0.076208  -0.007000
     8  C   -0.067847  -0.013018   0.082119   0.145812  -0.007624   0.075353
     9  C    0.019632   0.094127  -0.222568   0.255657   0.022183  -0.039100
    10  C   -0.047518   0.133304  -0.222916   0.441915  -0.040424   0.021052
    11  C    0.224475  -0.047026  -0.232477  -0.423214  -0.090905  -0.013390
    12  C    0.221807  -0.046702  -0.214730  -0.421548  -0.012164  -0.088990
    13  C   -0.017125  -0.002885   0.003339  -0.010581  -0.091504   0.004505
    14  C   -0.014632  -0.003397   0.000094  -0.012634   0.004359  -0.092362
    15  O   -0.012529   0.002363   0.003473   0.026205  -0.023672  -0.023696
    16  C   -0.325028   0.325841  -1.342216   0.051301  -0.029097  -0.029061
    17  C   -2.153800   1.732081  -2.904808   0.914819  -0.002029  -0.000934
    18  C   -1.060088  -1.117377   3.310887  -1.031880   0.001801   0.001177
    19  C    9.192962  -0.411397  -0.804988   0.855714   0.000730   0.000665
    20  C   -0.411397   8.443111  -2.045806  -0.744591  -0.000202  -0.000198
    21  C   -0.804988  -2.045806  12.087782  -1.667498  -0.000099  -0.000119
    22  C    0.855714  -0.744591  -1.667498   9.152763  -0.002066  -0.001751
    23  H    0.000730  -0.000202  -0.000099  -0.002066   0.464721  -0.002962
    24  H    0.000665  -0.000198  -0.000119  -0.001751  -0.002962   0.464777
    25  H    0.002739   0.000721   0.000228   0.002847  -0.002339  -0.000008
    26  H    0.002584   0.000800   0.000744   0.002395  -0.000005  -0.002319
    27  H   -0.031777   0.015091   0.005445  -0.008537   0.002882  -0.000266
    28  H   -0.032606   0.013708   0.009793  -0.003951  -0.000270   0.002881
    29  H   -0.173860  -0.007776   0.080281   0.010663  -0.000095  -0.000081
    30  H    0.479984  -0.051631  -0.014423   0.017708   0.000006   0.000006
    31  H   -0.029161   0.443681  -0.118613   0.029589  -0.000003  -0.000003
    32  H   -0.008022  -0.036297   0.443885  -0.063159  -0.000002  -0.000002
    33  C    0.464389  -0.257612  -0.208242  -1.163149   0.000378   0.000526
    34  O   -0.013581   0.121785  -0.042674  -0.118176   0.000020   0.000018
    35  O   -0.013403   0.026977  -0.044500  -0.107571   0.000042   0.000067
              25         26         27         28         29         30
     1  O   -0.013086   0.000000   0.002694   0.000004   0.000095  -0.000005
     2  O    0.000000  -0.012997   0.000004   0.002627   0.000088  -0.000004
     3  C   -0.106346  -0.001969   0.166294  -0.001688  -0.015950   0.000790
     4  C   -0.001641  -0.102281  -0.002941   0.157842  -0.013671   0.000199
     5  C    0.539579   0.000256  -0.228995  -0.008726   0.006482  -0.000276
     6  C    0.000226   0.536549  -0.008709  -0.219955   0.002149   0.001429
     7  C   -0.133846   0.000064   0.623520  -0.024582   0.003598  -0.001754
     8  C    0.000264  -0.123975  -0.027232   0.610280   0.001447  -0.001689
     9  C    0.065167   0.004386   0.029358  -0.070530   0.017411  -0.001282
    10  C    0.005917   0.063458  -0.077546   0.020239   0.020552  -0.004375
    11  C    0.035234  -0.007057  -0.029121  -0.013005  -0.034938   0.005854
    12  C   -0.006824   0.032579  -0.012398  -0.032991  -0.036578   0.005638
    13  C   -0.098849   0.000006   0.030194   0.000174   0.000750  -0.000093
    14  C    0.000027  -0.099633   0.000149   0.030177  -0.000022  -0.000010
    15  O    0.000740   0.000747  -0.001542  -0.001574   0.001489  -0.000278
    16  C    0.037472   0.033548  -0.125795  -0.117195  -0.043167  -0.002305
    17  C   -0.004189  -0.005041   0.034448   0.034812  -0.029238  -0.014002
    18  C    0.001803   0.002530   0.005322   0.006076   0.532442  -0.079416
    19  C    0.002739   0.002584  -0.031777  -0.032606  -0.173860   0.479984
    20  C    0.000721   0.000800   0.015091   0.013708  -0.007776  -0.051631
    21  C    0.000228   0.000744   0.005445   0.009793   0.080281  -0.014423
    22  C    0.002847   0.002395  -0.008537  -0.003951   0.010663   0.017708
    23  H   -0.002339  -0.000005   0.002882  -0.000270  -0.000095   0.000006
    24  H   -0.000008  -0.002319  -0.000266   0.002881  -0.000081   0.000006
    25  H    0.467905  -0.000005  -0.019266  -0.000081  -0.000121   0.000005
    26  H   -0.000005   0.467754  -0.000085  -0.018873  -0.000103   0.000003
    27  H   -0.019266  -0.000085   0.493200   0.000516   0.001829  -0.000513
    28  H   -0.000081  -0.018873   0.000516   0.492127   0.001957  -0.000560
    29  H   -0.000121  -0.000103   0.001829   0.001957   0.474532  -0.009549
    30  H    0.000005   0.000003  -0.000513  -0.000560  -0.009549   0.452800
    31  H    0.000029   0.000031  -0.000568  -0.000576   0.000199  -0.006643
    32  H    0.000054   0.000035  -0.000405  -0.000248   0.000433   0.000301
    33  C   -0.000127   0.000026  -0.022376  -0.023218  -0.009098   0.002220
    34  O   -0.000189  -0.000186   0.002180   0.002318   0.000473  -0.000332
    35  O   -0.000605  -0.000719   0.006445   0.007203  -0.000352  -0.000247
              31         32         33         34         35
     1  O    0.000000  -0.000001   0.000328   0.000000  -0.000026
     2  O    0.000000  -0.000001   0.000336   0.000000  -0.000034
     3  C   -0.000248  -0.000552   0.027619   0.001653   0.007156
     4  C   -0.000112  -0.000319   0.005601   0.002819   0.004889
     5  C   -0.000195   0.002771  -0.040569  -0.008880   0.019708
     6  C   -0.000775   0.002158   0.007652  -0.011821   0.018332
     7  C   -0.000043   0.000259  -0.072731   0.004173  -0.008983
     8  C   -0.000134   0.000607  -0.067752   0.006043  -0.009340
     9  C   -0.000188  -0.004554  -0.054025   0.008450  -0.005703
    10  C    0.001008  -0.003457  -0.130587   0.014661  -0.004282
    11  C   -0.000615  -0.000289   0.192756  -0.007186   0.058979
    12  C   -0.000524  -0.000151   0.195719  -0.006353   0.060992
    13  C    0.000051   0.000093  -0.001819  -0.000084   0.007253
    14  C    0.000028   0.000124  -0.001082  -0.000278   0.007573
    15  O    0.000024   0.000009  -0.012896   0.000007  -0.006545
    16  C    0.011984  -0.009638   0.388132  -0.047937  -0.086228
    17  C    0.018996   0.010711  -0.628921   0.044935  -0.018143
    18  C   -0.016422   0.032050  -0.382004   0.005577  -0.072668
    19  C   -0.029161  -0.008022   0.464389  -0.013581  -0.013403
    20  C    0.443681  -0.036297  -0.257612   0.121785   0.026977
    21  C   -0.118613   0.443885  -0.208242  -0.042674  -0.044500
    22  C    0.029589  -0.063159  -1.163149  -0.118176  -0.107571
    23  H   -0.000003  -0.000002   0.000378   0.000020   0.000042
    24  H   -0.000003  -0.000002   0.000526   0.000018   0.000067
    25  H    0.000029   0.000054  -0.000127  -0.000189  -0.000605
    26  H    0.000031   0.000035   0.000026  -0.000186  -0.000719
    27  H   -0.000568  -0.000405  -0.022376   0.002180   0.006445
    28  H   -0.000576  -0.000248  -0.023218   0.002318   0.007203
    29  H    0.000199   0.000433  -0.009098   0.000473  -0.000352
    30  H   -0.006643   0.000301   0.002220  -0.000332  -0.000247
    31  H    0.459813  -0.007728   0.009890   0.001474   0.000130
    32  H   -0.007728   0.433535  -0.044664   0.003715   0.000321
    33  C    0.009890  -0.044664   7.167411   0.256051   0.247135
    34  O    0.001474   0.003715   0.256051   8.489914  -0.143946
    35  O    0.000130   0.000321   0.247135  -0.143946   8.551118
 Mulliken charges:
               1
     1  O   -0.530578
     2  O   -0.530719
     3  C   -0.459909
     4  C   -0.455480
     5  C   -0.047078
     6  C   -0.028393
     7  C   -0.693808
     8  C   -0.682997
     9  C    0.305775
    10  C    0.289416
    11  C    0.192035
    12  C    0.189551
    13  C   -0.391930
    14  C   -0.391255
    15  O   -0.108436
    16  C    1.207221
    17  C    0.315847
    18  C   -0.415579
    19  C   -0.393933
    20  C   -0.461708
    21  C   -0.186299
    22  C    0.053356
    23  H    0.215954
    24  H    0.215967
    25  H    0.226567
    26  H    0.226753
    27  H    0.178501
    28  H    0.177894
    29  H    0.217730
    30  H    0.222443
    31  H    0.205625
    32  H    0.248431
    33  C    0.154703
    34  O   -0.564642
    35  O   -0.501025
 Sum of Mulliken charges =  -2.00000
 Mulliken charges with hydrogens summed into heavy atoms:
               1
     1  O   -0.530578
     2  O   -0.530719
     3  C   -0.243955
     4  C   -0.239513
     5  C    0.179489
     6  C    0.198360
     7  C   -0.515307
     8  C   -0.505103
     9  C    0.305775
    10  C    0.289416
    11  C    0.192035
    12  C    0.189551
    13  C   -0.391930
    14  C   -0.391255
    15  O   -0.108436
    16  C    1.207221
    17  C    0.315847
    18  C   -0.197849
    19  C   -0.171490
    20  C   -0.256082
    21  C    0.062133
    22  C    0.053356
    33  C    0.154703
    34  O   -0.564642
    35  O   -0.501025
 Electronic spatial extent (au):  <R**2>=           7926.6291
 Charge=             -2.0000 electrons
 Dipole moment (field-independent basis, Debye):
    X=             -8.6863    Y=            -12.1743    Z=             -0.1319  Tot=             14.9560
 Quadrupole moment (field-independent basis, Debye-Ang):
   XX=           -204.4259   YY=           -192.9054   ZZ=           -264.8194
   XY=             33.5219   XZ=              0.5414   YZ=             -0.9507
 Traceless Quadrupole moment (field-independent basis, Debye-Ang):
   XX=             16.2910   YY=             27.8115   ZZ=            -44.1025
   XY=             33.5219   XZ=              0.5414   YZ=             -0.9507
 Octapole moment (field-independent basis, Debye-Ang**2):
  XXX=            -88.3622  YYY=           -140.0599  ZZZ=              0.3552  XYY=             77.6226
  XXY=            -57.9331  XXZ=             -2.9292  XZZ=           -345.7385  YZZ=             53.0535
  YYZ=             -1.8958  XYZ=              0.4018
 Hexadecapole moment (field-independent basis, Debye-Ang**3):
 XXXX=          -5167.4930 YYYY=          -1751.6684 ZZZZ=          -7721.7479 XXXY=            540.7324
 XXXZ=              5.1489 YYYX=            602.3042 YYYZ=            -20.8268 ZZZX=              1.1528
 ZZZY=            -25.8464 XXYY=          -1267.4883 XXZZ=          -2698.7260 YYZZ=          -1096.7254
 XXYZ=            -13.9344 YYXZ=              8.7531 ZZXY=            214.1382
 N-N= 2.030526496315D+03 E-N=-6.773908956876D+03  KE= 1.139451313646D+03
 No NMR shielding tensors so no spin-rotation constants.
 Leave Link  601 at Mon Feb 17 10:22:57 2020, MaxMem=  6710886400 cpu:         7.7
 (Enter /opt/sys/apps/gaussian09/D.01/g09/l9999.exe)

 Test job not archived.
 1\1\GINC-S83P26\SP\RCAM-B3LYP TD-FC\6-311++G(d,p)\C20H10O5(2-)\SALVATO
 RE\17-Feb-2020\0\\#p CAM-B3LYP/6-311++G** nosym density=current geom=a
 llcheck EmpiricalDispersion=GD3 SCRF=(CPCM, solvent=acetonitrile) IOP(
 10/74=10) TD=(NSTATES=10,ROOT=1,NONEQ) iop(3/119=0810000000) iop(3/120
 =0810000000)\\dianion\\-2,1\O,0,2.7684665389,-0.4064813947,-4.70997149
 88\O,0,2.7781950885,-0.3679893294,4.7053074623\C,0,2.7097585608,-0.376
 4533858,-2.3394908914\C,0,2.7143030581,-0.357169909,2.3348645215\C,0,0
 .6404230098,-0.328609122,-3.6519044728\C,0,0.6477815083,-0.3023679632,
 3.6513199\C,0,-0.0927480219,-0.3025567418,-2.5015061336\C,0,-0.0878648
 045,-0.28464607,2.5024565497\C,0,0.5232182971,-0.3111134051,-1.2139038
 21\C,0,0.5252804139,-0.2993075984,1.2132561396\C,0,1.9493477037,-0.345
 2166221,-1.1960473808\C,0,1.9515770436,-0.3341208991,1.192802497\C,0,2
 .09618919,-0.3676552035,-3.6402810095\C,0,2.103494238,-0.3414505108,3.
 6368863236\O,0,2.6231502815,-0.3464393038,-0.0021531202\C,0,-0.1818821
 754,-0.2649789741,-0.0001329606\C,0,-1.6738666237,-0.3323624837,0.0024
 29559\C,0,-2.2361866743,-1.6167740823,-0.0088918214\C,0,-3.6163472649,
 -1.7950871201,-0.0112589982\C,0,-4.4552940811,-0.6797919887,-0.0044259
 168\C,0,-3.9008951241,0.5950254959,0.0054465264\C,0,-2.5144686328,0.79
 29327391,0.0102714952\H,0,3.7907291006,-0.4058770869,-2.266329731\H,0,
 3.7951343263,-0.3870031256,2.2597540778\H,0,0.1525917404,-0.3205277461
 ,-4.6210733228\H,0,0.1619628044,-0.2892309834,4.6214282776\H,0,-1.1751
 817493,-0.2700218161,-2.5485446079\H,0,-1.1701561908,-0.2547550371,2.5
 519896477\H,0,-1.5782484298,-2.4789146084,-0.0154995202\H,0,-4.0312952
 975,-2.7962984896,-0.0199074308\H,0,-5.5319831044,-0.8048035447,-0.008
 0001028\H,0,-4.5341751853,1.4743792827,0.0098867339\C,0,-1.9672003064,
 2.230028513,0.0131649655\O,0,-2.8219836535,3.1520049316,0.0663737191\O
 ,0,-0.7186323312,2.3580861962,-0.0219428992\\Version=ES64L-G09RevD.01\
 HF=-1143.545916\RMSD=9.065e-09\Dipole=-3.4681443,-4.8241758,-0.0466527
 \Quadrupole=12.1119915,20.6771491,-32.7891406,24.9227441,0.4025268,-0.
 7068222\PG=C01 [X(C20H10O5)]\\@


 LENDING MONEY TO FRIENDS CAUSES THEM TO LOSE THEIR MEMORIES.

    --  PETER'S THEORY OF RECIPROCAL INHIBITION OF FISCAL RECALL
 Job cpu time:       0 days 21 hours 48 minutes 57.7 seconds.
 File lengths (MBytes):  RWF=   1123 Int=      0 D2E=      0 Chk=    268 Scr=      1
 Normal termination of Gaussian 09 at Mon Feb 17 10:22:58 2020.
