 Entering Gaussian System, Link 0=g09
 Initial command:
 /opt/sys/apps/gaussian09/D.01/g09/l1.exe "/tmp/Gau-18292.inp" -scrdir="/tmp/"
 Entering Link 1 = /opt/sys/apps/gaussian09/D.01/g09/l1.exe PID=     18293.
  
 Copyright (c) 1988,1990,1992,1993,1995,1998,2003,2009,2013,
            Gaussian, Inc.  All Rights Reserved.
  
 This is part of the Gaussian(R) 09 program.  It is based on
 the Gaussian(R) 03 system (copyright 2003, Gaussian, Inc.),
 the Gaussian(R) 98 system (copyright 1998, Gaussian, Inc.),
 the Gaussian(R) 94 system (copyright 1995, Gaussian, Inc.),
 the Gaussian 92(TM) system (copyright 1992, Gaussian, Inc.),
 the Gaussian 90(TM) system (copyright 1990, Gaussian, Inc.),
 the Gaussian 88(TM) system (copyright 1988, Gaussian, Inc.),
 the Gaussian 86(TM) system (copyright 1986, Carnegie Mellon
 University), and the Gaussian 82(TM) system (copyright 1983,
 Carnegie Mellon University). Gaussian is a federally registered
 trademark of Gaussian, Inc.
  
 This software contains proprietary and confidential information,
 including trade secrets, belonging to Gaussian, Inc.
  
 This software is provided under written license and may be
 used, copied, transmitted, or stored only in accord with that
 written license.
  
 The following legend is applicable only to US Government
 contracts under FAR:
  
                    RESTRICTED RIGHTS LEGEND
  
 Use, reproduction and disclosure by the US Government is
 subject to restrictions as set forth in subparagraphs (a)
 and (c) of the Commercial Computer Software - Restricted
 Rights clause in FAR 52.227-19.
  
 Gaussian, Inc.
 340 Quinnipiac St., Bldg. 40, Wallingford CT 06492
  
  
 ---------------------------------------------------------------
 Warning -- This program may not be used in any manner that
 competes with the business of Gaussian, Inc. or will provide
 assistance to any competitor of Gaussian, Inc.  The licensee
 of this program is prohibited from giving any competitor of
 Gaussian, Inc. access to this program.  By using this program,
 the user acknowledges that Gaussian, Inc. is engaged in the
 business of creating and licensing software in the field of
 computational chemistry and represents and warrants to the
 licensee that it is not a competitor of Gaussian, Inc. and that
 it will not use this program in any manner prohibited above.
 ---------------------------------------------------------------
  

 Cite this work as:
 Gaussian 09, Revision D.01,
 M. J. Frisch, G. W. Trucks, H. B. Schlegel, G. E. Scuseria, 
 M. A. Robb, J. R. Cheeseman, G. Scalmani, V. Barone, B. Mennucci, 
 G. A. Petersson, H. Nakatsuji, M. Caricato, X. Li, H. P. Hratchian, 
 A. F. Izmaylov, J. Bloino, G. Zheng, J. L. Sonnenberg, M. Hada, 
 M. Ehara, K. Toyota, R. Fukuda, J. Hasegawa, M. Ishida, T. Nakajima, 
 Y. Honda, O. Kitao, H. Nakai, T. Vreven, J. A. Montgomery, Jr., 
 J. E. Peralta, F. Ogliaro, M. Bearpark, J. J. Heyd, E. Brothers, 
 K. N. Kudin, V. N. Staroverov, T. Keith, R. Kobayashi, J. Normand, 
 K. Raghavachari, A. Rendell, J. C. Burant, S. S. Iyengar, J. Tomasi, 
 M. Cossi, N. Rega, J. M. Millam, M. Klene, J. E. Knox, J. B. Cross, 
 V. Bakken, C. Adamo, J. Jaramillo, R. Gomperts, R. E. Stratmann, 
 O. Yazyev, A. J. Austin, R. Cammi, C. Pomelli, J. W. Ochterski, 
 R. L. Martin, K. Morokuma, V. G. Zakrzewski, G. A. Voth, 
 P. Salvador, J. J. Dannenberg, S. Dapprich, A. D. Daniels, 
 O. Farkas, J. B. Foresman, J. V. Ortiz, J. Cioslowski, 
 and D. J. Fox, Gaussian, Inc., Wallingford CT, 2013.
 
 ******************************************
 Gaussian 09:  ES64L-G09RevD.01 24-Apr-2013
                17-Feb-2020 
 ******************************************
 %NProcShared=24
 Will use up to   24 processors via shared memory.
 %oldChk=checkpointCPCM_ethan.chk
 %Chk=checkpointCPCM_ethanolES.chk
 %mem=50Gb
 Copying data from "checkpointCPCM_ethan.chk" to current chk file "checkpointCPCM_ethanolES.chk".
 ----------------------------------------------------------------------
 #p CAM-B3LYP/6-311++G** nosym density=current geom=allcheck EmpiricalD
 ispersion=GD3 SCRF=(CPCM, solvent=ethanol) IOP(10/74=10) TD=(NSTATES=1
 0,ROOT=1,NONEQ) iop(3/119=0810000000) iop(3/120=0810000000)
 ----------------------------------------------------------------------
 1/29=7,30=1,38=1/1;
 2/12=2,15=1,40=1/2;
 3/5=4,6=6,7=1111,11=9,14=-4,16=1,25=1,30=1,70=2101,71=1,72=4,74=-40,119=810000000,120=810000000,124=31/1,2,8,3;
 4//1;
 5/5=2,38=5,53=4/2;
 8/6=1,10=2,107=1,108=10/1;
 9/8=1,15=1,41=10,42=1,70=2,73=1/14;
 10/5=4,13=10,31=1,74=10/2;
 6/7=2,8=2,9=2,10=2,22=-1/1;
 99/5=1,9=1/99;
 Leave Link    1 at Mon Feb 17 13:02:10 2020, MaxMem=  6710886400 cpu:        18.4
 (Enter /opt/sys/apps/gaussian09/D.01/g09/l101.exe)
 Structure from the checkpoint file:  "checkpointCPCM_ethanolES.chk"
 --------
 NRA_NRA1
 --------
 Charge =  0 Multiplicity = 1
 Redundant internal coordinates found in file.
 O,0,-6.8559164535,-5.1761870779,-0.8765706926
 C,0,-6.3810703077,-4.0472201,-0.7039336088
 C,0,-4.951580135,-3.848447585,-0.7283079159
 C,0,-4.3877069188,-2.6452087394,-0.45539919
 O,0,-3.0290174485,-2.5394803601,-0.4841238765
 C,0,-2.436121098,-1.3424592565,-0.1869369117
 C,0,-1.0628211904,-1.2777014454,-0.2243757933
 C,0,-0.4055406556,-0.0581102488,0.0863740934
 N,0,0.9496795852,0.0421087143,0.0452168749
 C,0,1.6615740315,1.2518741692,0.4781699091
 C,0,1.8329432996,2.2784910056,-0.6439318459
 C,0,1.7960308316,-1.0536327653,-0.4438017985
 C,0,-1.223727519,1.0645887292,0.4403572352
 C,0,-2.5924209787,0.9692692219,0.4678459693
 C,0,-3.2534262335,-0.2381968116,0.1522538827
 N,0,-4.6089185209,-0.3294016956,0.1695915492
 C,0,-5.1698879006,-1.4778000875,-0.1264609122
 C,0,-6.6294277979,-1.6108013132,-0.1360227856
 C,0,-7.2478830398,-2.8476257026,-0.4514264605
 C,0,-8.6697139161,-2.8900588995,-0.4875831145
 C,0,-9.4755311962,-4.1246450335,-0.8614700976
 F,0,-9.1606488625,-4.6214574985,-2.0785828933
 F,0,-9.3838289804,-5.124207694,0.0447387672
 F,0,-10.8086942991,-3.8405014871,-0.9347383744
 C,0,-9.411020517,-1.75206026,-0.1884433755
 C,0,-8.7824527273,-0.5501500988,0.1457457582
 C,0,-7.4066305449,-0.4781517717,0.1638773268
 C,0,2.1870251863,-2.0448550222,0.6552732987
 H,0,-4.3324614232,-4.7092756177,-0.9462195415
 H,0,-0.5194181845,-2.1766064592,-0.4731409866
 H,0,2.6390774145,0.9319419952,0.8446563198
 H,0,1.1487097293,1.6897697202,1.3356678934
 H,0,2.3906564556,3.1443056081,-0.277883855
 H,0,2.3841586488,1.8460525286,-1.4826683198
 H,0,0.8648129076,2.6230081944,-1.0139374203
 H,0,2.691132462,-0.5993216313,-0.8735819901
 H,0,1.2913772742,-1.5611747791,-1.2677789947
 H,0,-0.7682290753,2.0156517754,0.6710005327
 H,0,-3.1982625963,1.8300002941,0.725745853
 H,0,-10.4900128776,-1.7885878812,-0.2177083887
 H,0,-9.3813085979,0.3217491211,0.3789089353
 H,0,-6.9023055877,0.4475111652,0.4057935015
 H,0,2.8288470422,-2.827515941,0.2426988045
 H,0,2.7348166699,-1.5394734267,1.4545845414
 H,0,1.3052440456,-2.5180055522,1.092928097
 Recover connectivity data from disk.
 NAtoms=     45 NQM=       45 NQMF=       0 NMMI=      0 NMMIF=      0
                NMic=       0 NMicF=      0.
                    Isotopes and Nuclear Properties:
 (Nuclear quadrupole moments (NQMom) in fm**2, nuclear magnetic moments (NMagM)
  in nuclear magnetons)

  Atom         1           2           3           4           5           6           7           8           9          10
 IAtWgt=          16          12          12          12          16          12          12          12          14          12
 AtmWgt=  15.9949146  12.0000000  12.0000000  12.0000000  15.9949146  12.0000000  12.0000000  12.0000000  14.0030740  12.0000000
 NucSpn=           0           0           0           0           0           0           0           0           2           0
 AtZEff=  -5.6000000  -3.6000000  -3.6000000  -3.6000000  -5.6000000  -3.6000000  -3.6000000  -3.6000000  -4.5500000  -3.6000000
 NQMom=    0.0000000   0.0000000   0.0000000   0.0000000   0.0000000   0.0000000   0.0000000   0.0000000   2.0440000   0.0000000
 NMagM=    0.0000000   0.0000000   0.0000000   0.0000000   0.0000000   0.0000000   0.0000000   0.0000000   0.4037610   0.0000000
 AtZNuc=   8.0000000   6.0000000   6.0000000   6.0000000   8.0000000   6.0000000   6.0000000   6.0000000   7.0000000   6.0000000

  Atom        11          12          13          14          15          16          17          18          19          20
 IAtWgt=          12          12          12          12          12          14          12          12          12          12
 AtmWgt=  12.0000000  12.0000000  12.0000000  12.0000000  12.0000000  14.0030740  12.0000000  12.0000000  12.0000000  12.0000000
 NucSpn=           0           0           0           0           0           2           0           0           0           0
 AtZEff=  -3.6000000  -3.6000000  -3.6000000  -3.6000000  -3.6000000  -4.5500000  -3.6000000  -3.6000000  -3.6000000  -3.6000000
 NQMom=    0.0000000   0.0000000   0.0000000   0.0000000   0.0000000   2.0440000   0.0000000   0.0000000   0.0000000   0.0000000
 NMagM=    0.0000000   0.0000000   0.0000000   0.0000000   0.0000000   0.4037610   0.0000000   0.0000000   0.0000000   0.0000000
 AtZNuc=   6.0000000   6.0000000   6.0000000   6.0000000   6.0000000   7.0000000   6.0000000   6.0000000   6.0000000   6.0000000

  Atom        21          22          23          24          25          26          27          28          29          30
 IAtWgt=          12          19          19          19          12          12          12          12           1           1
 AtmWgt=  12.0000000  18.9984033  18.9984033  18.9984033  12.0000000  12.0000000  12.0000000  12.0000000   1.0078250   1.0078250
 NucSpn=           0           1           1           1           0           0           0           0           1           1
 AtZEff=  -3.6000000  -6.7500000  -6.7500000  -6.7500000  -3.6000000  -3.6000000  -3.6000000  -3.6000000  -1.0000000  -1.0000000
 NQMom=    0.0000000   0.0000000   0.0000000   0.0000000   0.0000000   0.0000000   0.0000000   0.0000000   0.0000000   0.0000000
 NMagM=    0.0000000   2.6288670   2.6288670   2.6288670   0.0000000   0.0000000   0.0000000   0.0000000   2.7928460   2.7928460
 AtZNuc=   6.0000000   9.0000000   9.0000000   9.0000000   6.0000000   6.0000000   6.0000000   6.0000000   1.0000000   1.0000000

  Atom        31          32          33          34          35          36          37          38          39          40
 IAtWgt=           1           1           1           1           1           1           1           1           1           1
 AtmWgt=   1.0078250   1.0078250   1.0078250   1.0078250   1.0078250   1.0078250   1.0078250   1.0078250   1.0078250   1.0078250
 NucSpn=           1           1           1           1           1           1           1           1           1           1
 AtZEff=  -1.0000000  -1.0000000  -1.0000000  -1.0000000  -1.0000000  -1.0000000  -1.0000000  -1.0000000  -1.0000000  -1.0000000
 NQMom=    0.0000000   0.0000000   0.0000000   0.0000000   0.0000000   0.0000000   0.0000000   0.0000000   0.0000000   0.0000000
 NMagM=    2.7928460   2.7928460   2.7928460   2.7928460   2.7928460   2.7928460   2.7928460   2.7928460   2.7928460   2.7928460
 AtZNuc=   1.0000000   1.0000000   1.0000000   1.0000000   1.0000000   1.0000000   1.0000000   1.0000000   1.0000000   1.0000000

  Atom        41          42          43          44          45
 IAtWgt=           1           1           1           1           1
 AtmWgt=   1.0078250   1.0078250   1.0078250   1.0078250   1.0078250
 NucSpn=           1           1           1           1           1
 AtZEff=  -1.0000000  -1.0000000  -1.0000000  -1.0000000  -1.0000000
 NQMom=    0.0000000   0.0000000   0.0000000   0.0000000   0.0000000
 NMagM=    2.7928460   2.7928460   2.7928460   2.7928460   2.7928460
 AtZNuc=   1.0000000   1.0000000   1.0000000   1.0000000   1.0000000
 Leave Link  101 at Mon Feb 17 13:02:10 2020, MaxMem=  6710886400 cpu:         6.7
 (Enter /opt/sys/apps/gaussian09/D.01/g09/l202.exe)
                          Input orientation:                          
 ---------------------------------------------------------------------
 Center     Atomic      Atomic             Coordinates (Angstroms)
 Number     Number       Type             X           Y           Z
 ---------------------------------------------------------------------
      1          8           0       -6.855916   -5.176187   -0.876571
      2          6           0       -6.381070   -4.047220   -0.703934
      3          6           0       -4.951580   -3.848448   -0.728308
      4          6           0       -4.387707   -2.645209   -0.455399
      5          8           0       -3.029017   -2.539480   -0.484124
      6          6           0       -2.436121   -1.342459   -0.186937
      7          6           0       -1.062821   -1.277701   -0.224376
      8          6           0       -0.405541   -0.058110    0.086374
      9          7           0        0.949680    0.042109    0.045217
     10          6           0        1.661574    1.251874    0.478170
     11          6           0        1.832943    2.278491   -0.643932
     12          6           0        1.796031   -1.053633   -0.443802
     13          6           0       -1.223728    1.064589    0.440357
     14          6           0       -2.592421    0.969269    0.467846
     15          6           0       -3.253426   -0.238197    0.152254
     16          7           0       -4.608919   -0.329402    0.169592
     17          6           0       -5.169888   -1.477800   -0.126461
     18          6           0       -6.629428   -1.610801   -0.136023
     19          6           0       -7.247883   -2.847626   -0.451426
     20          6           0       -8.669714   -2.890059   -0.487583
     21          6           0       -9.475531   -4.124645   -0.861470
     22          9           0       -9.160649   -4.621457   -2.078583
     23          9           0       -9.383829   -5.124208    0.044739
     24          9           0      -10.808694   -3.840501   -0.934738
     25          6           0       -9.411021   -1.752060   -0.188443
     26          6           0       -8.782453   -0.550150    0.145746
     27          6           0       -7.406631   -0.478152    0.163877
     28          6           0        2.187025   -2.044855    0.655273
     29          1           0       -4.332461   -4.709276   -0.946220
     30          1           0       -0.519418   -2.176606   -0.473141
     31          1           0        2.639077    0.931942    0.844656
     32          1           0        1.148710    1.689770    1.335668
     33          1           0        2.390656    3.144306   -0.277884
     34          1           0        2.384159    1.846053   -1.482668
     35          1           0        0.864813    2.623008   -1.013937
     36          1           0        2.691132   -0.599322   -0.873582
     37          1           0        1.291377   -1.561175   -1.267779
     38          1           0       -0.768229    2.015652    0.671001
     39          1           0       -3.198263    1.830000    0.725746
     40          1           0      -10.490013   -1.788588   -0.217708
     41          1           0       -9.381309    0.321749    0.378909
     42          1           0       -6.902306    0.447511    0.405794
     43          1           0        2.828847   -2.827516    0.242699
     44          1           0        2.734817   -1.539473    1.454585
     45          1           0        1.305244   -2.518006    1.092928
 ---------------------------------------------------------------------
                    Distance matrix (angstroms):
                    1          2          3          4          5
     1  O    0.000000
     2  C    1.236871   0.000000
     3  C    2.326235   1.443450   0.000000
     4  C    3.560238   2.449674   1.356546   0.000000
     5  O    4.663839   3.682099   2.338647   1.363100   0.000000
     6  C    5.891320   4.810992   3.591740   2.361761   1.368468
     7  C    7.013095   6.015312   4.688830   3.602543   2.350635
     8  C    8.290315   7.228038   5.974683   4.779565   3.655858
     9  N    9.434386   8.427558   7.110530   5.996665   4.772299
    10  C   10.756530   9.703705   8.438168   7.256212   6.107539
    11  C   11.450879  10.367654   9.142005   7.935670   6.846682
    12  C    9.593692   8.711729   7.309048   6.385285   5.048808
    13  C    8.509003   7.351066   6.276989   4.957393   4.135584
    14  C    7.599440   6.394693   5.496072   4.140034   3.661719
    15  C    6.198400   5.002387   4.085710   2.729385   2.398175
    16  N    5.443784   4.210195   3.647921   2.408840   2.794258
    17  C    4.133210   2.898682   2.455575   1.443208   2.416281
    18  C    3.648518   2.514029   2.858852   2.489440   3.734511
    19  C    2.399288   1.501383   2.520182   2.867333   4.230230
    20  C    2.944071   2.573659   3.847204   4.289122   5.651582
    21  C    2.822827   3.099436   4.534330   5.314093   6.649261
    22  F    2.657884   3.153643   4.487432   5.414911   6.668870
    23  F    2.691069   3.276732   4.676537   5.599715   6.880708
    24  F    4.172756   4.438452   5.860756   6.548860   7.900575
    25  C    4.327438   3.835895   4.957106   5.109076   6.437190
    26  C    5.114381   4.326441   5.130138   4.905552   6.120146
    27  C    4.843279   3.813544   4.264055   3.767431   4.881852
    28  C    9.691573   8.903324   7.491791   6.694858   5.361901
    29  H    2.567232   2.166522   1.082506   2.122340   2.573035
    30  H    7.022211   6.157226   4.743862   3.896609   2.535722
    31  H   11.420454  10.418889   9.107383   7.991361   6.778180
    32  H   10.775407   9.683523   8.493844   7.256161   6.217041
    33  H   12.453439  11.350892  10.149380   8.916064   7.856260
    34  H   11.621454  10.590861   9.317159   8.190536   7.037930
    35  H   10.975244   9.853470   8.705846   7.460231   6.487982
    36  H   10.587438   9.706784   8.305961   7.380413   6.052769
    37  H    8.921869   8.084850   6.670619   5.838415   4.498556
    38  H    9.548689   8.375730   7.337994   6.007746   5.214854
    39  H    8.064274   6.834908   6.118265   4.778847   4.537046
    40  H    5.011645   4.713941   5.931102   6.166720   7.503417
    41  H    6.179089   5.409424   6.183766   5.868131   7.020190
    42  H    5.768240   4.658947   4.852502   4.077962   4.971562
    43  H   10.028144   9.338435   7.906972   7.252533   5.909806
    44  H   10.518656   9.697803   8.317276   7.456610   6.162823
    45  H    8.806213   8.040313   6.650927   5.901118   4.612307
                    6          7          8          9         10
     6  C    0.000000
     7  C    1.375336   0.000000
     8  C    2.418162   1.419854   0.000000
     9  N    3.665320   2.421722   1.359544   0.000000
    10  C    4.895308   3.783471   2.478412   1.468937   0.000000
    11  C    5.616497   4.605213   3.317207   2.501297   1.530497
    12  C    4.249766   2.876002   2.473675   1.468366   2.486659
    13  C    2.767178   2.440099   1.433592   2.434194   2.891621
    14  C    2.407750   2.804946   2.446114   3.685745   4.263384
    15  C    1.415074   2.453807   2.854334   4.213802   5.146237
    16  N    2.423726   3.691787   4.212945   5.572387   6.474159
    17  C    2.737783   4.113104   4.975924   6.307829   7.381434
    18  C    4.202192   5.577264   6.418495   7.759370   8.792773
    19  C    5.048617   6.385233   7.408662   8.706162   9.851318
    20  C    6.429863   7.780346   8.754766  10.070462  11.172457
    21  C    7.599266   8.904194   9.984981  11.263611  12.439321
    22  F    7.716828   8.955088  10.107576  11.334819  12.575910
    23  F    7.913655   9.170998  10.309061  11.553018  12.761003
    24  F    8.769231  10.102208  11.116418  12.421527  13.543862
    25  C    6.986916   8.361743   9.167533  10.517497  11.492186
    26  C    6.404245   7.762669   8.391560   9.750655  10.603560
    27  C    5.057278   6.405774   7.014107   8.373331   9.237105
    28  C    4.751438   3.453087   3.315448   2.501722   3.343036
    29  H    3.938029   4.794508   6.174164   7.173536   8.572786
    30  H    2.109849   1.079445   2.194095   2.711022   4.173272
    31  H    5.656388   4.441780   3.290121   2.070017   1.091871
    32  H    4.935965   4.016278   2.651700   2.102300   1.090910
    33  H    6.590684   5.611017   4.266951   3.435758   2.164365
    34  H    5.922890   4.819005   3.724265   2.765208   2.172571
    35  H    5.225421   4.422072   3.164313   2.791067   2.177435
    36  H    5.226133   3.869604   3.286915   2.070817   2.512797
    37  H    3.887197   2.590617   2.640542   2.100294   3.331460
    38  H    3.846405   3.425589   2.184907   2.690295   2.554307
    39  H    3.387971   3.888528   3.431188   4.567833   4.900361
    40  H    8.066297   9.441027  10.236386  11.588233  12.545506
    41  H    7.164175   8.492316   8.988564  10.340158  11.082429
    42  H    4.847899   6.121523   6.524235   7.870708   8.601876
    43  H    5.487246   4.214874   4.260905   3.435843   4.249635
    44  H    5.428812   4.160467   3.732061   2.770277   3.145927
    45  H    4.125261   2.980164   3.160858   2.788962   3.836260
                   11         12         13         14         15
    11  C    0.000000
    12  C    3.338332   0.000000
    13  C    3.463016   3.793091   0.000000
    14  C    4.746995   4.917494   1.372284   0.000000
    15  C    5.730513   5.149489   2.428977   1.412268   0.000000
    16  N    6.997179   6.474885   3.670973   2.416974   1.358668
    17  C    7.963488   6.986032   4.728341   3.603427   2.299375
    18  C    9.327180   8.449468   6.059003   4.828959   3.655753
    19  C   10.429551   9.220133   7.238173   6.089916   4.809286
    20  C   11.706586  10.625732   8.481923   7.262283   6.064482
    21  C   12.997272  11.689896   9.834387   8.665578   7.405856
    22  F   13.058583  11.638329  10.083199   8.993450   7.686669
    23  F   13.456976  11.907876  10.249145   9.134150   7.840057
    24  F   14.047692  12.918466  10.854602   9.623320   8.440393
    25  C   11.953223  11.231697   8.681052   7.370865   6.350104
    26  C   11.014147  10.606855   7.734889   6.381918   5.537824
    27  C    9.675813   9.240640   6.378462   5.036272   4.160147
    28  C    4.528204   1.530805   4.620396   5.653599   5.754612
    29  H    9.323759   7.153640   6.702562   6.105178   4.728795
    30  H    5.040899   2.573565   3.440331   3.883211   3.409304
    31  H    2.163086   2.512640   3.886170   5.245184   6.047334
    32  H    2.175680   3.333436   2.611684   3.907467   4.949376
    33  H    1.093010   4.243088   4.231414   5.487983   6.594089
    34  H    1.092850   3.135811   4.162398   5.416604   6.228919
    35  H    1.092187   3.835350   2.984233   4.108893   5.148436
    36  H    3.011816   1.091932   4.452096   5.672375   6.043222
    37  H    3.927533   1.091427   4.017227   4.949690   4.941862
    38  H    2.926470   4.151954   1.079442   2.112786   3.394869
    39  H    5.233564   5.884399   2.136841   1.083704   2.146946
    40  H   12.983761  12.310083   9.717907   8.393314   7.410045
    41  H   11.429545  11.291654   8.191564   6.820278   6.157585
    42  H    8.986600   8.867711   5.712112   4.341795   3.721397
    43  H    5.277238   2.164406   5.622358   6.622418   6.611112
    44  H    4.449045   2.172839   4.845603   5.970503   6.264857
    45  H    5.128502   2.178715   4.433568   5.267220   5.183037
                   16         17         18         19         20
    16  N    0.000000
    17  C    1.311927   0.000000
    18  C    2.412020   1.465618   0.000000
    19  C    3.700169   2.509998   1.418344   0.000000
    20  C    4.845503   3.791262   2.433693   1.422923   0.000000
    21  C    6.257066   5.107308   3.866004   2.600256   1.520965
    22  F    6.647878   5.442383   4.386875   3.074539   2.402090
    23  F    6.767978   5.575204   4.468045   3.160897   2.405150
    24  F    7.210034   6.166993   4.803725   3.728105   2.382966
    25  C    5.021188   4.250443   2.785670   2.438973   1.390705
    26  C    4.179436   3.739687   2.416587   2.826643   2.426724
    27  C    2.801669   2.467106   1.406015   2.453203   2.799478
    28  C    7.025918   7.420029   8.862528   9.533453  10.949396
    29  H    4.528218   3.437400   3.941195   3.494316   4.725638
    30  H    4.533132   4.715441   6.145405   6.761877   8.181476
    31  H    7.387838   8.229816   9.660873  10.663815  12.011299
    32  H    6.211849   7.217756   8.576658   9.710017  10.986379
    33  H    7.826936   8.862766  10.197700  11.350542  12.601163
    34  H    7.507709   8.363666   9.747206  10.764307  12.066857
    35  H    6.330814   7.349956   8.652140   9.801025  11.026249
    36  H    7.379147   7.945159   9.404251  10.198878  11.595918
    37  H    6.196514   6.561822   8.001405   8.674120  10.079582
    38  H    4.527867   5.675804   6.939460   8.179072   9.372394
    39  H    2.638612   3.943996   4.935044   6.298043   7.327203
    40  H    6.071779   5.329976   3.865540   3.418712   2.144658
    41  H    4.821153   4.607585   3.401875   3.909718   3.401895
    42  H    2.432901   2.644124   2.145851   3.422306   3.880880
    43  H    7.846418   8.120208   9.543730  10.100629  11.521898
    44  H    7.552875   8.061505   9.498642  10.246874  11.647292
    45  H    6.373371   6.670553   8.080369   8.697681  10.106247
                   21         22         23         24         25
    21  C    0.000000
    22  F    1.351790   0.000000
    23  F    1.352313   2.193413   0.000000
    24  F    1.365075   2.152749   2.153490   0.000000
    25  C    2.467040   3.445106   3.380309   2.621457   0.000000
    26  C    3.777811   4.654698   4.614527   4.012420   1.396914
    27  C    4.316086   5.027145   5.050678   4.907789   2.400948
    28  C   11.943252  11.953349  11.989155  13.215189  11.632379
    29  H    5.176885   4.959975   5.164347   6.534255   5.925463
    30  H    9.173746   9.122807   9.355978  10.433160   8.906283
    31  H   13.237964  13.364846  13.485811  14.380022  12.388544
    32  H   12.308913  12.560715  12.610756  13.368551  11.210576
    33  H   13.927836  14.035036  14.391348  14.947971  12.777401
    34  H   13.292380  13.246372  13.762377  14.376665  12.399503
    35  H   12.348149  12.414735  12.890881  13.343688  11.198902
    36  H   12.667113  12.573557  12.927591  13.883599  12.176220
    37  H   11.075323  10.920970  11.330399  12.317385  10.758379
    38  H   10.764238  11.047359  11.207067  11.733877   9.467425
    39  H    8.796656   9.221476   9.331989   9.634857   7.229472
    40  H    2.626931   3.640771   3.524043   2.196825   1.080007
    41  H    4.617125   5.524785   5.456200   4.592105   2.150222
    42  H    5.397412   6.080023   6.110022   5.953482   3.388935
    43  H   12.421733  12.343200  12.428332  13.725707  12.294586
    44  H   12.694086  12.786086  12.716114  13.943826  12.258307
    45  H   11.073666  11.136333  11.052026  12.353458  10.819746
                   26         27         28         29         30
    26  C    0.000000
    27  C    1.377824   0.000000
    28  C   11.082563   9.733153   0.000000
    29  H    6.188145   5.346517   7.222716   0.000000
    30  H    8.444295   7.122095   2.935219   4.601903   0.000000
    31  H   11.538476  10.167009   3.016875   9.145104   4.623392
    32  H   10.249934   8.903192   3.935538   8.729148   4.582936
    33  H   11.775688  10.454864   5.276328  10.359813   6.067847
    34  H   11.536322  10.196695   4.443964   9.400696   5.062775
    35  H   10.221719   8.911858   5.130639   8.987693   5.024426
    36  H   11.518880  10.151641   2.163583   8.138051   3.599419
    37  H   10.222635   8.881324   2.175836   6.453023   2.071035
    38  H    8.431311   7.109473   5.022100   7.780990   4.352700
    39  H    6.097926   4.832559   6.634817   6.844268   4.966531
    40  H    2.140465   3.371957  12.709645   6.853947   9.981411
    41  H    1.083144   2.141363  11.811162   7.249692   9.246668
    42  H    2.144273   1.081535   9.428153   5.918149   6.956994
    43  H   11.832923  10.501939   1.093028   7.499259   3.485253
    44  H   11.633543  10.278194   1.092879   8.109126   3.835637
    45  H   10.321397   8.995604   1.092223   6.383064   2.428686
                   31         32         33         34         35
    31  H    0.000000
    32  H    1.742582   0.000000
    33  H    2.493263   2.502330   0.000000
    34  H    2.513369   3.081197   1.771160   0.000000
    35  H    3.076051   2.544047   1.772491   1.769684   0.000000
    36  H    2.302134   3.535505   3.802616   2.538715   3.706555
    37  H    3.534729   4.167365   4.932530   3.584626   4.213523
    38  H    3.579710   2.054905   3.486086   3.821597   2.423783
    39  H    5.907215   4.391792   5.828438   6.003397   4.490428
    40  H   13.450015  12.246298  13.793067  13.437077  12.207712
    41  H   12.044872  10.661527  12.123422  12.008963  10.593338
    42  H    9.563747   8.199190   9.700477   9.579177   8.190028
    43  H    3.812072   4.941995   6.010463   5.001688   5.928303
    44  H    2.547366   3.599707   5.005765   4.495798   5.188137
    45  H    3.707140   4.217677   5.926130   5.181000   5.573409
                   36         37         38         39         40
    36  H    0.000000
    37  H    1.743522   0.000000
    38  H    4.603369   4.560102   0.000000
    39  H    6.568442   5.969177   2.437730   0.000000
    40  H   13.250929  11.830280  10.477362   8.194749   0.000000
    41  H   12.172138  10.961898   8.782924   6.373788   2.457377
    42  H    9.734820   8.600704   6.336899   3.966558   4.273235
    43  H    2.495976   2.499795   6.048030   7.632289  13.367250
    44  H    2.511206   3.081437   5.052153   6.861923  13.332469
    45  H    3.077206   2.547284   5.003135   6.270690  11.890244
                   41         42         43         44         45
    41  H    0.000000
    42  H    2.482337   0.000000
    43  H   12.610485  10.268775   0.000000
    44  H   12.305353   9.895564   1.771034   0.000000
    45  H   11.080453   8.753874   1.772019   1.769745   0.000000
 Symmetry turned off by external request.
 Stoichiometry    C21H17F3N2O2
 Framework group  C1[X(C21H17F3N2O2)]
 Deg. of freedom   129
 Full point group                 C1      NOp   1
 Rotational constants (GHZ):      0.5539133      0.0670443      0.0611558
 Leave Link  202 at Mon Feb 17 13:02:10 2020, MaxMem=  6710886400 cpu:         0.2
 (Enter /opt/sys/apps/gaussian09/D.01/g09/l301.exe)
 Standard basis: 6-311++G(d,p) (5D, 7F)
 Ernie: Thresh=  0.10000D-02 Tol=  0.10000D-05 Strict=F.
   735 basis functions,  1161 primitive gaussians,   763 cartesian basis functions
   100 alpha electrons      100 beta electrons
       nuclear repulsion energy      2505.3527699904 Hartrees.
 IExCor=20419 DFT=T Ex+Corr=CAM-B3LYP ExCW=0 ScaHFX=  1.000000
 ScaDFX=  1.000000  1.000000  1.000000  0.810000 ScalE2=  1.000000  1.000000
 IRadAn=      0 IRanWt=     -1 IRanGd=            0 ICorTp=0 IEmpDi=131
  HFx wShort=  0.000000 wLong=  0.330000 cFull=  0.190000 cShort=  0.000000 cLong=  0.810000
  DFx wShort=  0.000000 wLong=  0.330000 cFull=  0.190000 cShort=  0.000000 cLong=  0.810000
 NAtoms=   45 NActive=   45 NUniq=   45 SFac= 1.00D+00 NAtFMM=   60 NAOKFM=F Big=F
 Integral buffers will be    131072 words long.
 Raffenetti 1 integral format.
 Two-electron integral symmetry is turned off.
 R6Disp:  Grimme-D3 Dispersion energy=       -0.0318291355 Hartrees.
 Nuclear repulsion after empirical dispersion term =     2505.3209408549 Hartrees.
 ------------------------------------------------------------------------------
 Polarizable Continuum Model (PCM)
 =================================
 Model                : C-PCM.
 Atomic radii         : UFF (Universal Force Field).
 Polarization charges : Total charges.
 Charge compensation  : None.
 Solution method      : On-the-fly selection.
 Cavity type          : Scaled VdW (van der Waals Surface) (Alpha=1.100).
 Cavity algorithm     : GePol (No added spheres)
                        Default sphere list used, NSphG=   45.
                        Lebedev-Laikov grids with approx.  5.0 points / Ang**2.
                        Smoothing algorithm: Karplus/York (Gamma=1.0000).
                        Polarization charges: spherical gaussians, with
                                              point-specific exponents (IZeta= 3).
                        Self-potential: point-specific (ISelfS= 7).
                        Self-field    : sphere-specific E.n sum rule (ISelfD= 2).
 1st derivatives      : Analytical E(r).r(x)/FMM algorithm (CHGder, D1EAlg=3).
                        Cavity 1st derivative terms included.
 Solvent              : Ethanol, Eps=  24.852000 Eps(inf)=   1.852593
 ------------------------------------------------------------------------------
 GePol: Number of generator spheres                  =      45
 GePol: Total number of spheres                      =      45
 GePol: Number of exposed spheres                    =      45 (100.00%)
 GePol: Number of points                             =    3344
 GePol: Average weight of points                     =       0.13
 GePol: Minimum weight of points                     =   0.35D-10
 GePol: Maximum weight of points                     =    0.20577
 GePol: Number of points with low weight             =     205
 GePol: Fraction of low-weight points (<1% of avg)   =       6.13%
 GePol: Cavity surface area                          =    424.402 Ang**2
 GePol: Cavity volume                                =    478.757 Ang**3
 Leave Link  301 at Mon Feb 17 13:02:10 2020, MaxMem=  6710886400 cpu:         2.7
 (Enter /opt/sys/apps/gaussian09/D.01/g09/l302.exe)
 NPDir=0 NMtPBC=     1 NCelOv=     1 NCel=       1 NClECP=     1 NCelD=      1
         NCelK=      1 NCelE2=     1 NClLst=     1 CellRange=     0.0.
 One-electron integrals computed using PRISM.
 NBasis=   735 RedAO= T EigKep=  1.09D-06  NBF=   735
 NBsUse=   726 1.00D-06 EigRej=  6.24D-07 NBFU=   726
 Precomputing XC quadrature grid using
 IXCGrd= 4 IRadAn=           0 IRanWt=          -1 IRanGd=           0 AccXCQ= 0.00D+00.
 Generated NRdTot=       0 NPtTot=           0 NUsed=           0 NTot=          32
 NSgBfM=   715   716   717   717   717 MxSgAt=    45 MxSgA2=    45.
 Leave Link  302 at Mon Feb 17 13:02:12 2020, MaxMem=  6710886400 cpu:        27.6
 (Enter /opt/sys/apps/gaussian09/D.01/g09/l308.exe)
 Leave Link  308 at Mon Feb 17 13:02:12 2020, MaxMem=  6710886400 cpu:         3.5
 (Enter /opt/sys/apps/gaussian09/D.01/g09/l303.exe)
 DipDrv:  MaxL=1.
 Leave Link  303 at Mon Feb 17 13:02:12 2020, MaxMem=  6710886400 cpu:         2.8
 (Enter /opt/sys/apps/gaussian09/D.01/g09/l401.exe)
 ExpMin= 3.60D-02 ExpMax= 1.14D+04 ExpMxC= 1.72D+03 IAcc=3 IRadAn=         5 AccDes= 0.00D+00
 Harris functional with IExCor=20419 and IRadAn=       5 diagonalized for initial guess.
 HarFok:  IExCor=20419 AccDes= 0.00D+00 IRadAn=         5 IDoV= 1 UseB2=F ITyADJ=14
 ICtDFT=  3500011 ScaDFX=  1.000000  1.000000  1.000000  1.000000
 FoFCou: FMM=F IPFlag=           0 FMFlag=      100000 FMFlg1=           0
         NFxFlg=           0 DoJE=T BraDBF=F KetDBF=T FulRan=T
         wScrn=  0.000000 ICntrl=     500 IOpCl=  0 I1Cent=   200000004 NGrid=           0
         NMat0=    1 NMatS0=      1 NMatT0=    0 NMatD0=    1 NMtDS0=    0 NMtDT0=    0
 Symmetry not used in FoFCou.
 Harris En= -1307.43984367617    
 JPrj=0 DoOrth=F DoCkMO=F.
 Leave Link  401 at Mon Feb 17 13:02:16 2020, MaxMem=  6710886400 cpu:        87.2
 (Enter /opt/sys/apps/gaussian09/D.01/g09/l502.exe)
 Closed shell SCF:
 Using DIIS extrapolation, IDIIS=  1040.
 Two-electron integral symmetry not used.
 IVT=     1788037 IEndB=     1788037 NGot=  6710886400 MDV=  6709697936
 LenX=  6709697936 LenY=  6709115004
 Requested convergence on RMS density matrix=1.00D-08 within 128 cycles.
 Requested convergence on MAX density matrix=1.00D-06.
 Requested convergence on             energy=1.00D-06.
 No special actions if energy rises.
 Fock matrices will be formed incrementally for  20 cycles.

 Cycle   1  Pass 1  IDiag  1:
 FoFJK:  IHMeth= 1 ICntrl=       0 DoSepK=T KAlg= 0 I1Cent=   0 FoldK=F
 IRaf=         1 NMat=   1 IRICut=       1 DoRegI=T DoRafI=F ISym2E= 0.
 FoFCou: FMM=F IPFlag=           0 FMFlag=      100000 FMFlg1=           0
         NFxFlg=           0 DoJE=T BraDBF=F KetDBF=F FulRan=T
         wScrn=  0.000000 ICntrl=     500 IOpCl=  0 I1Cent=           0 NGrid=           0
         NMat0=    1 NMatS0=      1 NMatT0=    0 NMatD0=    1 NMtDS0=    0 NMtDT0=    0
 Symmetry not used in FoFCou.
 Inv3:  Mode=1 IEnd=    33547008.
 Iteration    1 A*A^-1 deviation from unit magnitude is 7.44D-15 for   3336.
 Iteration    1 A*A^-1 deviation from orthogonality  is 4.66D-15 for   3336   2748.
 Iteration    1 A^-1*A deviation from unit magnitude is 7.22D-15 for   3336.
 Iteration    1 A^-1*A deviation from orthogonality  is 2.40D-15 for   1696   1525.
 E= -1368.09873993470    
 DIIS: error= 5.31D-02 at cycle   1 NSaved=   1.
 NSaved= 1 IEnMin= 1 EnMin= -1368.09873993470     IErMin= 1 ErrMin= 5.31D-02
 ErrMax= 5.31D-02  0.00D+00 EMaxC= 1.00D-01 BMatC= 2.73D+00 BMatP= 2.73D+00
 IDIUse=3 WtCom= 4.69D-01 WtEn= 5.31D-01
 Coeff-Com:  0.100D+01
 Coeff-En:   0.100D+01
 Coeff:      0.100D+01
 Gap=     0.280 Goal=   None    Shift=    0.000
 GapD=    0.280 DampG=1.000 DampE=0.500 DampFc=0.5000 IDamp=-1.
 Damping current iteration by 5.00D-01
 RMSDP=1.29D-02 MaxDP=8.89D-01              OVMax= 1.88D-01

 Cycle   2  Pass 1  IDiag  1:
 RMSU=  6.04D-03    CP:  9.54D-01
 E= -1368.45384415613     Delta-E=       -0.355104221427 Rises=F Damp=T
 DIIS: error= 2.33D-02 at cycle   2 NSaved=   2.
 NSaved= 2 IEnMin= 2 EnMin= -1368.45384415613     IErMin= 2 ErrMin= 2.33D-02
 ErrMax= 2.33D-02  0.00D+00 EMaxC= 1.00D-01 BMatC= 4.62D-01 BMatP= 2.73D+00
 IDIUse=3 WtCom= 7.67D-01 WtEn= 2.33D-01
 Coeff-Com: -0.385D+00 0.139D+01
 Coeff-En:   0.000D+00 0.100D+01
 Coeff:     -0.296D+00 0.130D+01
 Gap=     0.242 Goal=   None    Shift=    0.000
 RMSDP=7.14D-03 MaxDP=4.37D-01 DE=-3.55D-01 OVMax= 1.59D-01

 Cycle   3  Pass 1  IDiag  1:
 RMSU=  4.70D-03    CP:  8.62D-01  1.48D+00
 E= -1368.75460144609     Delta-E=       -0.300757289958 Rises=F Damp=F
 DIIS: error= 8.58D-03 at cycle   3 NSaved=   3.
 NSaved= 3 IEnMin= 3 EnMin= -1368.75460144609     IErMin= 3 ErrMin= 8.58D-03
 ErrMax= 8.58D-03  0.00D+00 EMaxC= 1.00D-01 BMatC= 8.28D-02 BMatP= 4.62D-01
 IDIUse=3 WtCom= 9.14D-01 WtEn= 8.58D-02
 Coeff-Com: -0.223D+00 0.513D+00 0.710D+00
 Coeff-En:   0.000D+00 0.000D+00 0.100D+01
 Coeff:     -0.203D+00 0.469D+00 0.735D+00
 Gap=     0.232 Goal=   None    Shift=    0.000
 RMSDP=3.33D-03 MaxDP=3.53D-01 DE=-3.01D-01 OVMax= 5.56D-02

 Cycle   4  Pass 1  IDiag  1:
 RMSU=  1.73D-03    CP:  8.11D-01  1.66D+00  8.59D-01
 E= -1368.80657451210     Delta-E=       -0.051973066018 Rises=F Damp=F
 DIIS: error= 2.61D-03 at cycle   4 NSaved=   4.
 NSaved= 4 IEnMin= 4 EnMin= -1368.80657451210     IErMin= 4 ErrMin= 2.61D-03
 ErrMax= 2.61D-03  0.00D+00 EMaxC= 1.00D-01 BMatC= 7.97D-03 BMatP= 8.28D-02
 IDIUse=3 WtCom= 9.74D-01 WtEn= 2.61D-02
 Coeff-Com: -0.759D-01 0.165D+00 0.351D+00 0.561D+00
 Coeff-En:   0.000D+00 0.000D+00 0.000D+00 0.100D+01
 Coeff:     -0.739D-01 0.160D+00 0.341D+00 0.572D+00
 Gap=     0.230 Goal=   None    Shift=    0.000
 RMSDP=6.43D-04 MaxDP=3.85D-02 DE=-5.20D-02 OVMax= 1.20D-02

 Cycle   5  Pass 1  IDiag  1:
 RMSU=  5.23D-04    CP:  8.10D-01  1.69D+00  8.95D-01  8.34D-01
 E= -1368.81217600702     Delta-E=       -0.005601494920 Rises=F Damp=F
 DIIS: error= 5.11D-04 at cycle   5 NSaved=   5.
 NSaved= 5 IEnMin= 5 EnMin= -1368.81217600702     IErMin= 5 ErrMin= 5.11D-04
 ErrMax= 5.11D-04  0.00D+00 EMaxC= 1.00D-01 BMatC= 1.79D-04 BMatP= 7.97D-03
 IDIUse=3 WtCom= 9.95D-01 WtEn= 5.11D-03
 Coeff-Com: -0.999D-03-0.116D-04 0.372D-01 0.123D+00 0.841D+00
 Coeff-En:   0.000D+00 0.000D+00 0.000D+00 0.000D+00 0.100D+01
 Coeff:     -0.994D-03-0.115D-04 0.370D-01 0.123D+00 0.841D+00
 Gap=     0.232 Goal=   None    Shift=    0.000
 RMSDP=4.49D-04 MaxDP=4.12D-02 DE=-5.60D-03 OVMax= 1.15D-02

 Cycle   6  Pass 1  IDiag  1:
 RMSU=  1.81D-04    CP:  8.02D-01  1.70D+00  9.06D-01  8.93D-01  1.22D+00
 E= -1368.81253608134     Delta-E=       -0.000360074311 Rises=F Damp=F
 DIIS: error= 3.71D-04 at cycle   6 NSaved=   6.
 NSaved= 6 IEnMin= 6 EnMin= -1368.81253608134     IErMin= 6 ErrMin= 3.71D-04
 ErrMax= 3.71D-04  0.00D+00 EMaxC= 1.00D-01 BMatC= 5.50D-05 BMatP= 1.79D-04
 IDIUse=3 WtCom= 9.96D-01 WtEn= 3.71D-03
 Coeff-Com:  0.141D-01-0.311D-01-0.526D-01-0.780D-01 0.309D+00 0.839D+00
 Coeff-En:   0.000D+00 0.000D+00 0.000D+00 0.000D+00 0.000D+00 0.100D+01
 Coeff:      0.140D-01-0.310D-01-0.524D-01-0.777D-01 0.308D+00 0.839D+00
 Gap=     0.234 Goal=   None    Shift=    0.000
 RMSDP=2.51D-04 MaxDP=2.57D-02 DE=-3.60D-04 OVMax= 9.94D-03

 Cycle   7  Pass 1  IDiag  1:
 RMSU=  6.58D-05    CP:  7.98D-01  1.71D+00  9.11D-01  9.42D-01  1.41D+00
                    CP:  1.09D+00
 E= -1368.81268951278     Delta-E=       -0.000153431446 Rises=F Damp=F
 DIIS: error= 2.28D-04 at cycle   7 NSaved=   7.
 NSaved= 7 IEnMin= 7 EnMin= -1368.81268951278     IErMin= 7 ErrMin= 2.28D-04
 ErrMax= 2.28D-04  0.00D+00 EMaxC= 1.00D-01 BMatC= 9.62D-06 BMatP= 5.50D-05
 IDIUse=3 WtCom= 9.98D-01 WtEn= 2.28D-03
 Coeff-Com:  0.352D-02-0.740D-02-0.172D-01-0.394D-01-0.377D-01 0.230D+00
 Coeff-Com:  0.868D+00
 Coeff-En:   0.000D+00 0.000D+00 0.000D+00 0.000D+00 0.000D+00 0.000D+00
 Coeff-En:   0.100D+01
 Coeff:      0.351D-02-0.739D-02-0.172D-01-0.393D-01-0.376D-01 0.230D+00
 Coeff:      0.868D+00
 Gap=     0.234 Goal=   None    Shift=    0.000
 RMSDP=7.19D-05 MaxDP=7.01D-03 DE=-1.53D-04 OVMax= 6.40D-03

 Cycle   8  Pass 1  IDiag  1:
 RMSU=  3.09D-05    CP:  7.98D-01  1.71D+00  9.12D-01  9.54D-01  1.49D+00
                    CP:  1.26D+00  1.33D+00
 E= -1368.81273786309     Delta-E=       -0.000048350309 Rises=F Damp=F
 DIIS: error= 1.49D-04 at cycle   8 NSaved=   8.
 NSaved= 8 IEnMin= 8 EnMin= -1368.81273786309     IErMin= 8 ErrMin= 1.49D-04
 ErrMax= 1.49D-04  0.00D+00 EMaxC= 1.00D-01 BMatC= 3.34D-06 BMatP= 9.62D-06
 IDIUse=3 WtCom= 9.99D-01 WtEn= 1.49D-03
 Coeff-Com: -0.414D-02 0.925D-02 0.150D-01 0.142D-01-0.124D+00-0.217D+00
 Coeff-Com:  0.284D+00 0.102D+01
 Coeff-En:   0.000D+00 0.000D+00 0.000D+00 0.000D+00 0.000D+00 0.000D+00
 Coeff-En:   0.000D+00 0.100D+01
 Coeff:     -0.413D-02 0.924D-02 0.149D-01 0.142D-01-0.123D+00-0.217D+00
 Coeff:      0.283D+00 0.102D+01
 Gap=     0.234 Goal=   None    Shift=    0.000
 RMSDP=5.71D-05 MaxDP=6.22D-03 DE=-4.84D-05 OVMax= 6.10D-03

 Cycle   9  Pass 1  IDiag  1:
 RMSU=  2.37D-05    CP:  7.98D-01  1.71D+00  9.12D-01  9.56D-01  1.54D+00
                    CP:  1.38D+00  1.77D+00  1.65D+00
 E= -1368.81276367524     Delta-E=       -0.000025812147 Rises=F Damp=F
 DIIS: error= 7.11D-05 at cycle   9 NSaved=   9.
 NSaved= 9 IEnMin= 9 EnMin= -1368.81276367524     IErMin= 9 ErrMin= 7.11D-05
 ErrMax= 7.11D-05  0.00D+00 EMaxC= 1.00D-01 BMatC= 1.14D-06 BMatP= 3.34D-06
 IDIUse=1 WtCom= 1.00D+00 WtEn= 0.00D+00
 Coeff-Com: -0.232D-02 0.503D-02 0.103D-01 0.148D-01-0.295D-01-0.141D+00
 Coeff-Com: -0.180D+00 0.355D+00 0.967D+00
 Coeff:     -0.232D-02 0.503D-02 0.103D-01 0.148D-01-0.295D-01-0.141D+00
 Coeff:     -0.180D+00 0.355D+00 0.967D+00
 Gap=     0.235 Goal=   None    Shift=    0.000
 RMSDP=3.31D-05 MaxDP=3.65D-03 DE=-2.58D-05 OVMax= 3.70D-03

 Cycle  10  Pass 1  IDiag  1:
 RMSU=  8.10D-06    CP:  7.98D-01  1.71D+00  9.13D-01  9.59D-01  1.56D+00
                    CP:  1.42D+00  2.02D+00  2.15D+00  1.52D+00
 E= -1368.81277116482     Delta-E=       -0.000007489580 Rises=F Damp=F
 DIIS: error= 3.18D-05 at cycle  10 NSaved=  10.
 NSaved=10 IEnMin=10 EnMin= -1368.81277116482     IErMin=10 ErrMin= 3.18D-05
 ErrMax= 3.18D-05  0.00D+00 EMaxC= 1.00D-01 BMatC= 2.21D-07 BMatP= 1.14D-06
 IDIUse=1 WtCom= 1.00D+00 WtEn= 0.00D+00
 Coeff-Com:  0.703D-03-0.159D-02-0.165D-02-0.983D-03 0.293D-01 0.239D-01
 Coeff-Com: -0.142D+00-0.174D+00 0.306D+00 0.960D+00
 Coeff:      0.703D-03-0.159D-02-0.165D-02-0.983D-03 0.293D-01 0.239D-01
 Coeff:     -0.142D+00-0.174D+00 0.306D+00 0.960D+00
 Gap=     0.235 Goal=   None    Shift=    0.000
 RMSDP=1.58D-05 MaxDP=1.27D-03 DE=-7.49D-06 OVMax= 1.73D-03

 Cycle  11  Pass 1  IDiag  1:
 RMSU=  5.41D-06    CP:  7.98D-01  1.71D+00  9.13D-01  9.59D-01  1.57D+00
                    CP:  1.43D+00  2.11D+00  2.35D+00  1.86D+00  1.33D+00
 E= -1368.81277262540     Delta-E=       -0.000001460581 Rises=F Damp=F
 DIIS: error= 1.04D-05 at cycle  11 NSaved=  11.
 NSaved=11 IEnMin=11 EnMin= -1368.81277262540     IErMin=11 ErrMin= 1.04D-05
 ErrMax= 1.04D-05  0.00D+00 EMaxC= 1.00D-01 BMatC= 3.79D-08 BMatP= 2.21D-07
 IDIUse=1 WtCom= 1.00D+00 WtEn= 0.00D+00
 Coeff-Com:  0.492D-03-0.107D-02-0.196D-02-0.280D-02 0.984D-02 0.293D-01
 Coeff-Com:  0.129D-01-0.992D-01-0.141D+00 0.184D+00 0.101D+01
 Coeff:      0.492D-03-0.107D-02-0.196D-02-0.280D-02 0.984D-02 0.293D-01
 Coeff:      0.129D-01-0.992D-01-0.141D+00 0.184D+00 0.101D+01
 Gap=     0.235 Goal=   None    Shift=    0.000
 RMSDP=6.99D-06 MaxDP=4.58D-04 DE=-1.46D-06 OVMax= 6.14D-04

 Cycle  12  Pass 1  IDiag  1:
 RMSU=  2.03D-06    CP:  7.98D-01  1.71D+00  9.14D-01  9.60D-01  1.57D+00
                    CP:  1.44D+00  2.15D+00  2.39D+00  2.02D+00  1.41D+00
                    CP:  1.49D+00
 E= -1368.81277283896     Delta-E=       -0.000000213561 Rises=F Damp=F
 DIIS: error= 4.31D-06 at cycle  12 NSaved=  12.
 NSaved=12 IEnMin=12 EnMin= -1368.81277283896     IErMin=12 ErrMin= 4.31D-06
 ErrMax= 4.31D-06  0.00D+00 EMaxC= 1.00D-01 BMatC= 9.33D-09 BMatP= 3.79D-08
 IDIUse=1 WtCom= 1.00D+00 WtEn= 0.00D+00
 Coeff-Com: -0.927D-05 0.322D-04-0.190D-03-0.652D-03-0.337D-02 0.423D-02
 Coeff-Com:  0.387D-01 0.160D-02-0.121D+00-0.147D+00 0.387D+00 0.840D+00
 Coeff:     -0.927D-05 0.322D-04-0.190D-03-0.652D-03-0.337D-02 0.423D-02
 Coeff:      0.387D-01 0.160D-02-0.121D+00-0.147D+00 0.387D+00 0.840D+00
 Gap=     0.235 Goal=   None    Shift=    0.000
 RMSDP=2.38D-06 MaxDP=1.60D-04 DE=-2.14D-07 OVMax= 1.92D-04

 Cycle  13  Pass 1  IDiag  1:
 RMSU=  9.21D-07    CP:  7.98D-01  1.71D+00  9.14D-01  9.60D-01  1.58D+00
                    CP:  1.44D+00  2.16D+00  2.40D+00  2.06D+00  1.48D+00
                    CP:  1.64D+00  1.20D+00
 E= -1368.81277286942     Delta-E=       -0.000000030461 Rises=F Damp=F
 DIIS: error= 1.21D-06 at cycle  13 NSaved=  13.
 NSaved=13 IEnMin=13 EnMin= -1368.81277286942     IErMin=13 ErrMin= 1.21D-06
 ErrMax= 1.21D-06  0.00D+00 EMaxC= 1.00D-01 BMatC= 8.35D-10 BMatP= 9.33D-09
 IDIUse=1 WtCom= 1.00D+00 WtEn= 0.00D+00
 Coeff-Com: -0.546D-04 0.120D-03 0.193D-03 0.142D-03-0.180D-02-0.254D-02
 Coeff-Com:  0.751D-02 0.117D-01-0.106D-01-0.526D-01-0.354D-01 0.165D+00
 Coeff-Com:  0.919D+00
 Coeff:     -0.546D-04 0.120D-03 0.193D-03 0.142D-03-0.180D-02-0.254D-02
 Coeff:      0.751D-02 0.117D-01-0.106D-01-0.526D-01-0.354D-01 0.165D+00
 Coeff:      0.919D+00
 Gap=     0.235 Goal=   None    Shift=    0.000
 RMSDP=6.29D-07 MaxDP=3.72D-05 DE=-3.05D-08 OVMax= 4.55D-05

 Cycle  14  Pass 1  IDiag  1:
 RMSU=  3.34D-07    CP:  7.98D-01  1.71D+00  9.14D-01  9.60D-01  1.58D+00
                    CP:  1.45D+00  2.16D+00  2.40D+00  2.06D+00  1.47D+00
                    CP:  1.69D+00  1.29D+00  1.25D+00
 E= -1368.81277287216     Delta-E=       -0.000000002737 Rises=F Damp=F
 DIIS: error= 5.79D-07 at cycle  14 NSaved=  14.
 NSaved=14 IEnMin=14 EnMin= -1368.81277287216     IErMin=14 ErrMin= 5.79D-07
 ErrMax= 5.79D-07  0.00D+00 EMaxC= 1.00D-01 BMatC= 1.85D-10 BMatP= 8.35D-10
 IDIUse=1 WtCom= 1.00D+00 WtEn= 0.00D+00
 Coeff-Com: -0.722D-05 0.148D-04 0.630D-04 0.966D-04 0.892D-04-0.128D-02
 Coeff-Com: -0.431D-02 0.246D-02 0.168D-01 0.117D-01-0.700D-01-0.105D+00
 Coeff-Com:  0.276D+00 0.873D+00
 Coeff:     -0.722D-05 0.148D-04 0.630D-04 0.966D-04 0.892D-04-0.128D-02
 Coeff:     -0.431D-02 0.246D-02 0.168D-01 0.117D-01-0.700D-01-0.105D+00
 Coeff:      0.276D+00 0.873D+00
 Gap=     0.235 Goal=   None    Shift=    0.000
 RMSDP=2.75D-07 MaxDP=1.87D-05 DE=-2.74D-09 OVMax= 1.32D-05

 Cycle  15  Pass 1  IDiag  1:
 RMSU=  1.50D-07    CP:  7.98D-01  1.71D+00  9.14D-01  9.60D-01  1.58D+00
                    CP:  1.45D+00  2.16D+00  2.40D+00  2.06D+00  1.46D+00
                    CP:  1.70D+00  1.32D+00  1.36D+00  1.31D+00
 E= -1368.81277287273     Delta-E=       -0.000000000576 Rises=F Damp=F
 DIIS: error= 2.96D-07 at cycle  15 NSaved=  15.
 NSaved=15 IEnMin=15 EnMin= -1368.81277287273     IErMin=15 ErrMin= 2.96D-07
 ErrMax= 2.96D-07  0.00D+00 EMaxC= 1.00D-01 BMatC= 2.96D-11 BMatP= 1.85D-10
 IDIUse=1 WtCom= 1.00D+00 WtEn= 0.00D+00
 Coeff-Com:  0.581D-05-0.131D-04-0.107D-04 0.103D-04 0.318D-03 0.137D-04
 Coeff-Com: -0.229D-02-0.105D-02 0.657D-02 0.110D-01-0.145D-01-0.634D-01
 Coeff-Com: -0.575D-01 0.224D+00 0.897D+00
 Coeff:      0.581D-05-0.131D-04-0.107D-04 0.103D-04 0.318D-03 0.137D-04
 Coeff:     -0.229D-02-0.105D-02 0.657D-02 0.110D-01-0.145D-01-0.634D-01
 Coeff:     -0.575D-01 0.224D+00 0.897D+00
 Gap=     0.235 Goal=   None    Shift=    0.000
 RMSDP=1.29D-07 MaxDP=1.49D-05 DE=-5.76D-10 OVMax= 6.06D-06

 Cycle  16  Pass 1  IDiag  1:
 RMSU=  5.82D-08    CP:  7.98D-01  1.71D+00  9.14D-01  9.60D-01  1.58D+00
                    CP:  1.45D+00  2.16D+00  2.40D+00  2.06D+00  1.46D+00
                    CP:  1.70D+00  1.33D+00  1.39D+00  1.40D+00  1.24D+00
 E= -1368.81277287293     Delta-E=       -0.000000000194 Rises=F Damp=F
 DIIS: error= 1.16D-07 at cycle  16 NSaved=  16.
 NSaved=16 IEnMin=16 EnMin= -1368.81277287293     IErMin=16 ErrMin= 1.16D-07
 ErrMax= 1.16D-07  0.00D+00 EMaxC= 1.00D-01 BMatC= 7.59D-12 BMatP= 2.96D-11
 IDIUse=1 WtCom= 1.00D+00 WtEn= 0.00D+00
 Coeff-Com:  0.197D-05-0.426D-05-0.134D-04-0.118D-04 0.621D-04 0.241D-03
 Coeff-Com:  0.278D-03-0.870D-03-0.168D-02 0.536D-03 0.123D-01 0.207D-02
 Coeff-Com: -0.663D-01-0.142D+00 0.275D+00 0.920D+00
 Coeff:      0.197D-05-0.426D-05-0.134D-04-0.118D-04 0.621D-04 0.241D-03
 Coeff:      0.278D-03-0.870D-03-0.168D-02 0.536D-03 0.123D-01 0.207D-02
 Coeff:     -0.663D-01-0.142D+00 0.275D+00 0.920D+00
 Gap=     0.235 Goal=   None    Shift=    0.000
 RMSDP=7.18D-08 MaxDP=7.39D-06 DE=-1.94D-10 OVMax= 2.86D-06

 Cycle  17  Pass 1  IDiag  1:
 RMSU=  2.66D-08    CP:  7.98D-01  1.71D+00  9.14D-01  9.60D-01  1.58D+00
                    CP:  1.45D+00  2.16D+00  2.40D+00  2.06D+00  1.46D+00
                    CP:  1.70D+00  1.33D+00  1.39D+00  1.44D+00  1.43D+00
                    CP:  1.23D+00
 E= -1368.81277287300     Delta-E=       -0.000000000068 Rises=F Damp=F
 DIIS: error= 5.43D-08 at cycle  17 NSaved=  17.
 NSaved=17 IEnMin=17 EnMin= -1368.81277287300     IErMin=17 ErrMin= 5.43D-08
 ErrMax= 5.43D-08  0.00D+00 EMaxC= 1.00D-01 BMatC= 1.01D-12 BMatP= 7.59D-12
 IDIUse=1 WtCom= 1.00D+00 WtEn= 0.00D+00
 Coeff-Com: -0.616D-06 0.141D-05-0.738D-06-0.363D-05-0.459D-04 0.503D-04
 Coeff-Com:  0.464D-03 0.447D-04-0.153D-02-0.209D-02 0.512D-02 0.111D-01
 Coeff-Com:  0.334D-02-0.726D-01-0.110D+00 0.163D+00 0.100D+01
 Coeff:     -0.616D-06 0.141D-05-0.738D-06-0.363D-05-0.459D-04 0.503D-04
 Coeff:      0.464D-03 0.447D-04-0.153D-02-0.209D-02 0.512D-02 0.111D-01
 Coeff:      0.334D-02-0.726D-01-0.110D+00 0.163D+00 0.100D+01
 Gap=     0.235 Goal=   None    Shift=    0.000
 RMSDP=2.42D-08 MaxDP=1.89D-06 DE=-6.78D-11 OVMax= 1.23D-06

 Cycle  18  Pass 1  IDiag  1:
 RMSU=  8.78D-09    CP:  7.98D-01  1.71D+00  9.14D-01  9.60D-01  1.58D+00
                    CP:  1.45D+00  2.16D+00  2.40D+00  2.06D+00  1.46D+00
                    CP:  1.70D+00  1.32D+00  1.39D+00  1.44D+00  1.49D+00
                    CP:  1.33D+00  1.35D+00
 E= -1368.81277287303     Delta-E=       -0.000000000035 Rises=F Damp=F
 DIIS: error= 1.98D-08 at cycle  18 NSaved=  18.
 NSaved=18 IEnMin=18 EnMin= -1368.81277287303     IErMin=18 ErrMin= 1.98D-08
 ErrMax= 1.98D-08  0.00D+00 EMaxC= 1.00D-01 BMatC= 1.69D-13 BMatP= 1.01D-12
 IDIUse=1 WtCom= 1.00D+00 WtEn= 0.00D+00
 Coeff-Com: -0.317D-06 0.699D-06 0.132D-05 0.698D-07-0.219D-04-0.183D-04
 Coeff-Com:  0.836D-04 0.161D-03-0.183D-03-0.666D-03-0.347D-03 0.284D-02
 Coeff-Com:  0.123D-01-0.212D-02-0.787D-01-0.958D-01 0.299D+00 0.863D+00
 Coeff:     -0.317D-06 0.699D-06 0.132D-05 0.698D-07-0.219D-04-0.183D-04
 Coeff:      0.836D-04 0.161D-03-0.183D-03-0.666D-03-0.347D-03 0.284D-02
 Coeff:      0.123D-01-0.212D-02-0.787D-01-0.958D-01 0.299D+00 0.863D+00
 Gap=     0.235 Goal=   None    Shift=    0.000
 RMSDP=8.98D-09 MaxDP=1.54D-06 DE=-3.50D-11 OVMax= 4.84D-07

 Cycle  19  Pass 1  IDiag  1:
 RMSU=  3.48D-09    CP:  7.98D-01  1.71D+00  9.14D-01  9.60D-01  1.58D+00
                    CP:  1.45D+00  2.16D+00  2.40D+00  2.06D+00  1.46D+00
                    CP:  1.70D+00  1.32D+00  1.38D+00  1.44D+00  1.50D+00
                    CP:  1.36D+00  1.48D+00  1.22D+00
 E= -1368.81277287292     Delta-E=        0.000000000106 Rises=F Damp=F
 DIIS: error= 6.22D-09 at cycle  19 NSaved=  19.
 NSaved=19 IEnMin=18 EnMin= -1368.81277287303     IErMin=19 ErrMin= 6.22D-09
 ErrMax= 6.22D-09  0.00D+00 EMaxC= 1.00D-01 BMatC= 2.64D-14 BMatP= 1.69D-13
 IDIUse=1 WtCom= 1.00D+00 WtEn= 0.00D+00
 Coeff-Com: -0.485D-07 0.965D-07 0.545D-06 0.825D-06 0.370D-07-0.142D-04
 Coeff-Com: -0.393D-04 0.392D-04 0.146D-03 0.642D-04-0.796D-03-0.828D-03
 Coeff-Com:  0.261D-02 0.830D-02-0.239D-02-0.382D-01-0.794D-01 0.224D+00
 Coeff-Com:  0.887D+00
 Coeff:     -0.485D-07 0.965D-07 0.545D-06 0.825D-06 0.370D-07-0.142D-04
 Coeff:     -0.393D-04 0.392D-04 0.146D-03 0.642D-04-0.796D-03-0.828D-03
 Coeff:      0.261D-02 0.830D-02-0.239D-02-0.382D-01-0.794D-01 0.224D+00
 Coeff:      0.887D+00
 Gap=     0.235 Goal=   None    Shift=    0.000
 RMSDP=4.49D-09 MaxDP=3.59D-07 DE= 1.06D-10 OVMax= 1.87D-07

 Error on total polarization charges =  0.01910
 SCF Done:  E(RCAM-B3LYP) =  -1368.81277287     A.U. after   19 cycles
            NFock= 19  Conv=0.45D-08     -V/T= 2.0036
 KE= 1.363867762126D+03 PE=-8.214894830104D+03 EE= 2.976893354250D+03
 Leave Link  502 at Mon Feb 17 13:07:23 2020, MaxMem=  6710886400 cpu:      7288.1
 (Enter /opt/sys/apps/gaussian09/D.01/g09/l801.exe)
 DoSCS=F DFT=T ScalE2(SS,OS)=  1.000000  1.000000
 ExpMin= 3.60D-02 ExpMax= 1.14D+04 ExpMxC= 1.72D+03 IAcc=3 IRadAn=         5 AccDes= 0.00D+00
 HarFok:  IExCor=  205 AccDes= 0.00D+00 IRadAn=         5 IDoV=-2 UseB2=F ITyADJ=14
 ICtDFT= 12500011 ScaDFX=  1.000000  1.000000  1.000000  1.000000
 Largest valence mixing into a core orbital is  5.29D-05
 Largest core mixing into a valence orbital is  1.46D-05
 Range of M.O.s used for correlation:    29   726
 NBasis=   735 NAE=   100 NBE=   100 NFC=    28 NFV=     0
 NROrb=    698 NOA=    72 NOB=    72 NVA=   626 NVB=   626

 **** Warning!!: The largest alpha MO coefficient is  0.15137723D+03

 Leave Link  801 at Mon Feb 17 13:07:24 2020, MaxMem=  6710886400 cpu:         6.2
 (Enter /opt/sys/apps/gaussian09/D.01/g09/l914.exe)
 RHF ground state
 MDV=  6710886400 DFT=T DoStab=F Mixed=T DoRPA=T DoScal=F NonHer=T
 Would need an additional        215131200000 words for in-memory AO integral storage.
 NEqPCM:  Using non-equilibrium solvation (IEInf=1, Eps=  24.8520, EpsInf=   1.8526)
 Inv3:  Mode=1 IEnd=    33547008.
 Iteration    1 A*A^-1 deviation from unit magnitude is 7.44D-15 for   3336.
 Iteration    1 A*A^-1 deviation from orthogonality  is 4.66D-15 for   3336   2748.
 Iteration    1 A^-1*A deviation from unit magnitude is 7.22D-15 for   3336.
 Iteration    1 A^-1*A deviation from orthogonality  is 2.40D-15 for   1696   1525.
 Making orbital integer symmetry assigments:
    40 initial guesses have been made.
 Convergence on wavefunction:    0.000001000000000
 Davidson Disk Diagonalization:  ConvIn= 1.00D-06 SkipCon=T Conv= 1.00D-06.
 Max sub-space:   200 roots to seek:    40 dimension of matrix:        90144
 Iteration     1 Dimension    40 NMult     0 NNew     40
 CISAX will form    40 AO SS matrices at one time.
 NMat=    40 NSing=    40 JSym2X= 0.
 FoFJK:  IHMeth= 1 ICntrl=       0 DoSepK=T KAlg= 0 I1Cent=   0 FoldK=F
 IRaf=         1 NMat=  80 IRICut=       1 DoRegI=T DoRafI=F ISym2E= 0.
 New state      2 was old state      3
 New state      3 was old state     23
 New state      4 was old state      2
 New state      5 was old state     13
 New state      6 was old state     15
 New state      7 was old state      8
 New state      8 was old state      4
 New state      9 was old state     11
 New state     10 was old state     14
 Excitation Energies [eV] at current iteration:
 Root      1 :     3.334052183727155
 Root      2 :     4.489842807085261
 Root      3 :     4.781642159865187
 Root      4 :     4.974787068947294
 Root      5 :     5.048925840653347
 Root      6 :     5.297391954266076
 Root      7 :     5.482442506036059
 Root      8 :     5.633502357749868
 Root      9 :     5.772941100613363
 Root     10 :     5.807388040836937
 Root     11 :     6.078070099269275
 Root     12 :     6.241957802662939
 Root     13 :     6.311823153727977
 Root     14 :     6.373465608421573
 Root     15 :     6.583251473842307
 Root     16 :     6.683996794897890
 Root     17 :     6.716617647316401
 Root     18 :     6.817726738901589
 Root     19 :     6.894862170236798
 Root     20 :     7.139818003886699
 Root     21 :     7.172828435658519
 Root     22 :     7.225407768691453
 Root     23 :     7.394763776979928
 Root     24 :     7.408826882970183
 Root     25 :     7.470587796239675
 Root     26 :     7.486893674414704
 Root     27 :     7.534987568405022
 Root     28 :     7.661760831342859
 Root     29 :     7.743853939511304
 Root     30 :     7.769133345986327
 Root     31 :     7.948330746087310
 Root     32 :     7.982071458275056
 Root     33 :     8.045646814065734
 Root     34 :     8.095749307921469
 Root     35 :     8.212546919476740
 Root     36 :     8.363595737705175
 Root     37 :     8.383866572678905
 Root     38 :     8.428381767352349
 Root     39 :     8.577564497063145
 Root     40 :     8.761483099503893
 Iteration     2 Dimension    60 NMult    40 NNew     20
 CISAX will form    20 AO SS matrices at one time.
 NMat=    20 NSing=    20 JSym2X= 0.
 Root      1 not converged, maximum delta is    0.037423091493874
 Root      2 not converged, maximum delta is    0.075773002068682
 New state      3 was old state      5
 Root      3 not converged, maximum delta is    0.460113463307614
 New state      4 was old state      3
 Root      4 not converged, maximum delta is    0.433955825285768
 New state      5 was old state      4
 Root      5 not converged, maximum delta is    0.175025812288384
 Root      6 not converged, maximum delta is    0.249303557758199
 Root      7 not converged, maximum delta is    0.201378886557342
 New state      8 was old state      9
 Root      8 not converged, maximum delta is    0.178852550044782
 New state      9 was old state      8
 Root      9 not converged, maximum delta is    0.046629615946487
 Root     10 not converged, maximum delta is    0.116281642066058
 Excitation Energies [eV] at current iteration:
 Root      1 :     2.762789339442590   Change is   -0.571262844284565
 Root      2 :     4.019808140288305   Change is   -0.470034666796956
 Root      3 :     4.093283459864634   Change is   -0.955642380788713
 Root      4 :     4.262281211807069   Change is   -0.519360948058118
 Root      5 :     4.602672248415356   Change is   -0.372114820531938
 Root      6 :     4.806336407116127   Change is   -0.491055547149949
 Root      7 :     4.914966714640907   Change is   -0.567475791395152
 Root      8 :     5.226755844264678   Change is   -0.546185256348685
 Root      9 :     5.383449394160890   Change is   -0.250052963588978
 Root     10 :     5.397087584059994   Change is   -0.410300456776943
 Iteration     3 Dimension    80 NMult    60 NNew     20
 CISAX will form    20 AO SS matrices at one time.
 NMat=    20 NSing=    20 JSym2X= 0.
 Root      1 not converged, maximum delta is    0.011749015579114
 New state      2 was old state      3
 Root      2 not converged, maximum delta is    0.362080834678747
 New state      3 was old state      2
 Root      3 not converged, maximum delta is    0.352067422932530
 Root      4 not converged, maximum delta is    0.084415716275288
 Root      5 not converged, maximum delta is    0.047249554052192
 Root      6 not converged, maximum delta is    0.075754178826736
 Root      7 not converged, maximum delta is    0.118609869111912
 Root      8 not converged, maximum delta is    0.141270532648301
 New state      9 was old state     10
 Root      9 not converged, maximum delta is    0.107305002226501
 New state     10 was old state      9
 Root     10 not converged, maximum delta is    0.018773321694531
 Excitation Energies [eV] at current iteration:
 Root      1 :     2.721155630324946   Change is   -0.041633709117644
 Root      2 :     3.966707256992028   Change is   -0.126576202872606
 Root      3 :     3.993582042235625   Change is   -0.026226098052680
 Root      4 :     4.216676669445643   Change is   -0.045604542361426
 Root      5 :     4.561005137439639   Change is   -0.041667110975718
 Root      6 :     4.717530520187264   Change is   -0.088805886928863
 Root      7 :     4.829358686224059   Change is   -0.085608028416848
 Root      8 :     5.141579171023572   Change is   -0.085176673241107
 Root      9 :     5.335126589980097   Change is   -0.061960994079898
 Root     10 :     5.372167390523465   Change is   -0.011282003637425
 Iteration     4 Dimension   100 NMult    80 NNew     20
 CISAX will form    20 AO SS matrices at one time.
 NMat=    20 NSing=    20 JSym2X= 0.
 Root      1 not converged, maximum delta is    0.004961464046536
 Root      2 not converged, maximum delta is    0.008099771063303
 Root      3 not converged, maximum delta is    0.007976622939621
 Root      4 not converged, maximum delta is    0.006475675422853
 Root      5 not converged, maximum delta is    0.013408367663079
 Root      6 not converged, maximum delta is    0.012124449789191
 Root      7 not converged, maximum delta is    0.039147268854306
 Root      8 not converged, maximum delta is    0.062350544607783
 Root      9 not converged, maximum delta is    0.085158839507022
 Root     10 not converged, maximum delta is    0.005707139541730
 Excitation Energies [eV] at current iteration:
 Root      1 :     2.715076809426912   Change is   -0.006078820898035
 Root      2 :     3.959777870665782   Change is   -0.006929386326246
 Root      3 :     3.987156686219570   Change is   -0.006425356016056
 Root      4 :     4.213377388261359   Change is   -0.003299281184283
 Root      5 :     4.555599922581614   Change is   -0.005405214858025
 Root      6 :     4.707381998028702   Change is   -0.010148522158562
 Root      7 :     4.806912602639478   Change is   -0.022446083584582
 Root      8 :     5.111709422105657   Change is   -0.029869748917914
 Root      9 :     5.308067997508991   Change is   -0.027058592471105
 Root     10 :     5.371204479647980   Change is   -0.000962910875485
 Iteration     5 Dimension   120 NMult   100 NNew     20
 CISAX will form    20 AO SS matrices at one time.
 NMat=    20 NSing=    20 JSym2X= 0.
 Root      1 not converged, maximum delta is    0.001005535198488
 Root      2 not converged, maximum delta is    0.001882336844734
 Root      3 not converged, maximum delta is    0.001621782397573
 Root      4 not converged, maximum delta is    0.001590459481837
 Root      5 not converged, maximum delta is    0.003212219693694
 Root      6 not converged, maximum delta is    0.003455744791367
 Root      7 not converged, maximum delta is    0.012018457081654
 Root      8 not converged, maximum delta is    0.020449308306177
 Root      9 not converged, maximum delta is    0.039916290875114
 Root     10 not converged, maximum delta is    0.004411950217397
 Excitation Energies [eV] at current iteration:
 Root      1 :     2.714653230775002   Change is   -0.000423578651909
 Root      2 :     3.959177199494512   Change is   -0.000600671171271
 Root      3 :     3.986618613312298   Change is   -0.000538072907272
 Root      4 :     4.213071009347868   Change is   -0.000306378913491
 Root      5 :     4.554951654775611   Change is   -0.000648267806003
 Root      6 :     4.706575721802064   Change is   -0.000806276226638
 Root      7 :     4.803490319903191   Change is   -0.003422282736286
 Root      8 :     5.103300839144189   Change is   -0.008408582961469
 Root      9 :     5.299791541306032   Change is   -0.008276456202960
 Root     10 :     5.371086048477159   Change is   -0.000118431170821
 Iteration     6 Dimension   140 NMult   120 NNew     20
 CISAX will form    20 AO SS matrices at one time.
 NMat=    20 NSing=    20 JSym2X= 0.
 Root      1 not converged, maximum delta is    0.000265942015805
 Root      2 not converged, maximum delta is    0.000482308879461
 Root      3 not converged, maximum delta is    0.000432582542074
 Root      4 not converged, maximum delta is    0.000600550672025
 Root      5 not converged, maximum delta is    0.000821263498411
 Root      6 not converged, maximum delta is    0.000807311630753
 Root      7 not converged, maximum delta is    0.002483568279461
 Root      8 not converged, maximum delta is    0.005333096828275
 Root      9 not converged, maximum delta is    0.008773685152377
 Root     10 not converged, maximum delta is    0.002530551724680
 Excitation Energies [eV] at current iteration:
 Root      1 :     2.714627299651660   Change is   -0.000025931123342
 Root      2 :     3.959129840654312   Change is   -0.000047358840199
 Root      3 :     3.986568805756184   Change is   -0.000049807556114
 Root      4 :     4.213042521962357   Change is   -0.000028487385512
 Root      5 :     4.554884492875126   Change is   -0.000067161900485
 Root      6 :     4.706504160529833   Change is   -0.000071561272231
 Root      7 :     4.803113137760747   Change is   -0.000377182142443
 Root      8 :     5.102076847536279   Change is   -0.001223991607910
 Root      9 :     5.298630512851056   Change is   -0.001161028454975
 Root     10 :     5.371065902336023   Change is   -0.000020146141137
 Iteration     7 Dimension   160 NMult   140 NNew     20
 CISAX will form    20 AO SS matrices at one time.
 NMat=    20 NSing=    20 JSym2X= 0.
 Root      1 not converged, maximum delta is    0.000052529193943
 Root      2 not converged, maximum delta is    0.000102279611367
 Root      3 not converged, maximum delta is    0.000086414166999
 Root      4 not converged, maximum delta is    0.000104612972509
 Root      5 not converged, maximum delta is    0.000152929984565
 Root      6 not converged, maximum delta is    0.000094584902705
 Root      7 not converged, maximum delta is    0.000442049812387
 Root      8 not converged, maximum delta is    0.000718611062907
 Root      9 not converged, maximum delta is    0.001569146967585
 Root     10 not converged, maximum delta is    0.001024949453735
 Excitation Energies [eV] at current iteration:
 Root      1 :     2.714625781754607   Change is   -0.000001517897053
 Root      2 :     3.959126595008948   Change is   -0.000003245645364
 Root      3 :     3.986565522235492   Change is   -0.000003283520691
 Root      4 :     4.213039928186685   Change is   -0.000002593775672
 Root      5 :     4.554878873170348   Change is   -0.000005619704778
 Root      6 :     4.706499636284163   Change is   -0.000004524245669
 Root      7 :     4.803070946749430   Change is   -0.000042191011318
 Root      8 :     5.101971322031118   Change is   -0.000105525505161
 Root      9 :     5.298520823320302   Change is   -0.000109689530754
 Root     10 :     5.371061455351902   Change is   -0.000004446984120
 Iteration     8 Dimension   180 NMult   160 NNew     20
 CISAX will form    20 AO SS matrices at one time.
 NMat=    20 NSing=    20 JSym2X= 0.
 Root      1 not converged, maximum delta is    0.000007916372866
 Root      2 not converged, maximum delta is    0.000022506981050
 Root      3 not converged, maximum delta is    0.000017001595863
 Root      4 not converged, maximum delta is    0.000025839264461
 Root      5 not converged, maximum delta is    0.000023873542653
 Root      6 not converged, maximum delta is    0.000023235688780
 Root      7 not converged, maximum delta is    0.000073529839814
 Root      8 not converged, maximum delta is    0.000184300441929
 Root      9 not converged, maximum delta is    0.000233572938947
 Root     10 not converged, maximum delta is    0.000262236715642
 Excitation Energies [eV] at current iteration:
 Root      1 :     2.714625706228197   Change is   -0.000000075526410
 Root      2 :     3.959126416874769   Change is   -0.000000178134180
 Root      3 :     3.986565340524246   Change is   -0.000000181711246
 Root      4 :     4.213039753936825   Change is   -0.000000174249860
 Root      5 :     4.554878514244575   Change is   -0.000000358925773
 Root      6 :     4.706499356307000   Change is   -0.000000279977164
 Root      7 :     4.803068056820287   Change is   -0.000002889929143
 Root      8 :     5.101962972893954   Change is   -0.000008349137165
 Root      9 :     5.298511862928235   Change is   -0.000008960392067
 Root     10 :     5.371060839753346   Change is   -0.000000615598556
 Iteration     9 Dimension   200 NMult   180 NNew     20
 CISAX will form    20 AO SS matrices at one time.
 NMat=    20 NSing=    20 JSym2X= 0.
 Root      1 not converged, maximum delta is    0.000001159647509
 Root      2 not converged, maximum delta is    0.000005523679244
 Root      3 not converged, maximum delta is    0.000003801708327
 Root      4 not converged, maximum delta is    0.000007082537248
 Root      5 not converged, maximum delta is    0.000006015006169
 Root      6 not converged, maximum delta is    0.000005804330976
 Root      7 not converged, maximum delta is    0.000017477932887
 Root      8 not converged, maximum delta is    0.000044812532723
 Root      9 not converged, maximum delta is    0.000049984224914
 Root     10 not converged, maximum delta is    0.000047926674065
 Excitation Energies [eV] at current iteration:
 Root      1 :     2.714625703369525   Change is   -0.000000002858672
 Root      2 :     3.959126406392950   Change is   -0.000000010481819
 Root      3 :     3.986565331080715   Change is   -0.000000009443532
 Root      4 :     4.213039741038173   Change is   -0.000000012898652
 Root      5 :     4.554878492295776   Change is   -0.000000021948799
 Root      6 :     4.706499338718364   Change is   -0.000000017588636
 Root      7 :     4.803067900547223   Change is   -0.000000156273064
 Root      8 :     5.101962289100648   Change is   -0.000000683793306
 Root      9 :     5.298511141154485   Change is   -0.000000721773750
 Root     10 :     5.371060777200890   Change is   -0.000000062552456
 Davidson failed to converge within maximum sub-space dimensions.
  Restart with updated initial guess:
 Iteration     1 Dimension    40 NMult   200 NNew     40
 CISAX will form    40 AO SS matrices at one time.
 NMat=    40 NSing=    40 JSym2X= 0.
 Excitation Energies [eV] at current iteration:
 Root      1 :     2.714625703442537
 Root      2 :     3.959126405540772
 Root      3 :     3.986565330761190
 Root      4 :     4.213039740024726
 Root      5 :     4.554878490759655
 Root      6 :     4.706499337727978
 Root      7 :     4.803067892232966
 Root      8 :     5.101962244234287
 Root      9 :     5.298511088238126
 Root     10 :     5.371060776623760
 Iteration     2 Dimension    60 NMult   240 NNew     20
 CISAX will form    20 AO SS matrices at one time.
 NMat=    20 NSing=    20 JSym2X= 0.
 Root      1 has converged.
 Root      2 has converged.
 Root      3 has converged.
 Root      4 has converged.
 Root      5 not converged, maximum delta is    0.000001246754663
 Root      6 has converged.
 Root      7 not converged, maximum delta is    0.000001734194717
 Root      8 not converged, maximum delta is    0.000007211330336
 Root      9 not converged, maximum delta is    0.000005322654457
 Root     10 not converged, maximum delta is    0.000002229392482
 Excitation Energies [eV] at current iteration:
 Root      1 :     2.714625703445596   Change is    0.000000000003058
 Root      2 :     3.959126405470093   Change is   -0.000000000070680
 Root      3 :     3.986565330722113   Change is   -0.000000000039077
 Root      4 :     4.213039739930948   Change is   -0.000000000093778
 Root      5 :     4.554878490635735   Change is   -0.000000000123919
 Root      6 :     4.706499337624365   Change is   -0.000000000103614
 Root      7 :     4.803067891290015   Change is   -0.000000000942951
 Root      8 :     5.101962237160071   Change is   -0.000000007074216
 Root      9 :     5.298511079665864   Change is   -0.000000008572262
 Root     10 :     5.371060775863300   Change is   -0.000000000760460
 Iteration     3 Dimension    70 NMult   260 NNew     10
 CISAX will form    10 AO SS matrices at one time.
 NMat=    10 NSing=    10 JSym2X= 0.
 Root      1 has converged.
 Root      2 has converged.
 Root      3 has converged.
 Root      4 has converged.
 Root      5 has converged.
 Root      6 has converged.
 Root      7 has converged.
 Root      8 not converged, maximum delta is    0.000003040604571
 Root      9 not converged, maximum delta is    0.000002797321158
 Root     10 not converged, maximum delta is    0.000001551812055
 Excitation Energies [eV] at current iteration:
 Root      1 :     2.714625703451107   Change is    0.000000000005512
 Root      2 :     3.959126405471878   Change is    0.000000000001785
 Root      3 :     3.986565330707596   Change is   -0.000000000014517
 Root      4 :     4.213039739929368   Change is   -0.000000000001581
 Root      5 :     4.554878490612761   Change is   -0.000000000022975
 Root      6 :     4.706499337609867   Change is   -0.000000000014497
 Root      7 :     4.803067891176572   Change is   -0.000000000113443
 Root      8 :     5.101962235983811   Change is   -0.000000001176259
 Root      9 :     5.298511078361888   Change is   -0.000000001303976
 Root     10 :     5.371060775707014   Change is   -0.000000000156286
 Iteration     4 Dimension    76 NMult   270 NNew      6
 CISAX will form     6 AO SS matrices at one time.
 NMat=     6 NSing=     6 JSym2X= 0.
 Root      1 has converged.
 Root      2 has converged.
 Root      3 has converged.
 Root      4 has converged.
 Root      5 has converged.
 Root      6 has converged.
 Root      7 has converged.
 Root      8 not converged, maximum delta is    0.000002108838258
 Root      9 not converged, maximum delta is    0.000002073481608
 Root     10 has converged.
 Excitation Energies [eV] at current iteration:
 Root      1 :     2.714625703432393   Change is   -0.000000000018715
 Root      2 :     3.959126405473206   Change is    0.000000000001329
 Root      3 :     3.986565330690666   Change is   -0.000000000016930
 Root      4 :     4.213039739929270   Change is   -0.000000000000097
 Root      5 :     4.554878490611551   Change is   -0.000000000001209
 Root      6 :     4.706499337615300   Change is    0.000000000005433
 Root      7 :     4.803067891174604   Change is   -0.000000000001968
 Root      8 :     5.101962235700788   Change is   -0.000000000283024
 Root      9 :     5.298511078107905   Change is   -0.000000000253984
 Root     10 :     5.371060775660898   Change is   -0.000000000046116
 Iteration     5 Dimension    80 NMult   276 NNew      4
 CISAX will form     4 AO SS matrices at one time.
 NMat=     4 NSing=     4 JSym2X= 0.
 Root      1 has converged.
 Root      2 has converged.
 Root      3 has converged.
 Root      4 has converged.
 Root      5 has converged.
 Root      6 has converged.
 Root      7 has converged.
 Root      8 not converged, maximum delta is    0.000001096440151
 Root      9 not converged, maximum delta is    0.000001173572402
 Root     10 has converged.
 Excitation Energies [eV] at current iteration:
 Root      1 :     2.714625703443173   Change is    0.000000000010781
 Root      2 :     3.959126405475179   Change is    0.000000000001973
 Root      3 :     3.986565330698955   Change is    0.000000000008290
 Root      4 :     4.213039739929641   Change is    0.000000000000371
 Root      5 :     4.554878490604909   Change is   -0.000000000006642
 Root      6 :     4.706499337603510   Change is   -0.000000000011790
 Root      7 :     4.803067891176299   Change is    0.000000000001695
 Root      8 :     5.101962235624671   Change is   -0.000000000076117
 Root      9 :     5.298511078018257   Change is   -0.000000000089647
 Root     10 :     5.371060775656873   Change is   -0.000000000004026
 Iteration     6 Dimension    84 NMult   280 NNew      4
 CISAX will form     4 AO SS matrices at one time.
 NMat=     4 NSing=     4 JSym2X= 0.
 Root      1 has converged.
 Root      2 has converged.
 Root      3 has converged.
 Root      4 has converged.
 Root      5 has converged.
 Root      6 has converged.
 Root      7 has converged.
 Root      8 has converged.
 Root      9 has converged.
 Root     10 has converged.
 Excitation Energies [eV] at current iteration:
 Root      1 :     2.714625703475909   Change is    0.000000000032736
 Root      2 :     3.959126405473269   Change is   -0.000000000001910
 Root      3 :     3.986565330704688   Change is    0.000000000005732
 Root      4 :     4.213039739930109   Change is    0.000000000000468
 Root      5 :     4.554878490594334   Change is   -0.000000000010576
 Root      6 :     4.706499337588296   Change is   -0.000000000015213
 Root      7 :     4.803067891166560   Change is   -0.000000000009739
 Root      8 :     5.101962235608832   Change is   -0.000000000015839
 Root      9 :     5.298511077984482   Change is   -0.000000000033776
 Root     10 :     5.371060775654745   Change is   -0.000000000002128
 Convergence achieved on expansion vectors.
 ***********************************************************************
 Excited states from <AA,BB:AA,BB> singles matrix:
 ***********************************************************************
 
 1PDM for each excited state written to RWF  633
 Ground to excited state transition densities written to RWF  633
 Ground to excited state transition electric dipole moments (Au):
       state          X           Y           Z        Dip. S.      Osc.
         1        -3.7461     -1.8853     -0.3648     17.7209      1.1786
         2         0.1758     -0.0820     -0.0423      0.0394      0.0038
         3         0.3391     -0.2088     -0.0447      0.1606      0.0157
         4        -0.0318      0.0159     -0.1398      0.0208      0.0021
         5        -0.1832      0.8159      0.2378      0.7558      0.0843
         6        -0.0252     -0.0750     -0.0528      0.0090      0.0010
         7        -0.2105     -0.4175     -0.0946      0.2275      0.0268
         8        -0.5557      0.9086      0.2034      1.1757      0.1470
         9        -0.3386      0.2067      0.1012      0.1676      0.0218
        10        -0.0021     -0.1092     -0.0932      0.0206      0.0027
 Ground to excited state transition velocity dipole moments (Au):
       state          X           Y           Z        Dip. S.      Osc.
         1         0.3655      0.1808      0.0349      0.1675      1.1191
         2        -0.0251      0.0095      0.0056      0.0008      0.0035
         3        -0.0494      0.0256      0.0052      0.0031      0.0142
         4         0.0050     -0.0043      0.0273      0.0008      0.0034
         5         0.0374     -0.1452     -0.0424      0.0243      0.0967
         6         0.0064      0.0129      0.0092      0.0003      0.0011
         7         0.0298      0.0797      0.0187      0.0076      0.0287
         8         0.1082     -0.1659     -0.0371      0.0406      0.1444
         9         0.0596     -0.0398     -0.0197      0.0055      0.0189
        10         0.0002      0.0205      0.0190      0.0008      0.0026
 Ground to excited state transition magnetic dipole moments (Au):
       state          X           Y           Z
         1        -0.0919      0.3783     -1.1666
[...]
    34  H    0.000001   0.000004   0.000000   0.000000   0.000000   0.000000
    35  H    0.000058  -0.000001   0.000000   0.000000   0.000000   0.000000
    36  H   -0.000018  -0.000019  -0.000002   0.000000   0.000000   0.000000
    37  H    0.000211   0.000015   0.000013   0.000000   0.000000   0.000000
    38  H   -0.002741  -0.000275  -0.000041   0.000000   0.000000   0.000000
    39  H    0.003582   0.000585   0.000242   0.000000  -0.000001   0.000000
    40  H    0.027212  -0.015475  -0.059014  -0.001991  -0.001697  -0.000620
    41  H   -0.005734  -0.005005   0.000144   0.000424   0.000322   0.000511
    42  H    0.016256   0.026818  -0.010473  -0.000009   0.000067   0.000188
    43  H    0.000016   0.000001   0.000000   0.000000   0.000000   0.000000
    44  H    0.000004  -0.000002   0.000000   0.000000   0.000000   0.000000
    45  H    0.000486   0.000018   0.000009   0.000000   0.000000   0.000000
              25         26         27         28         29         30
     1  O    0.010469  -0.002289  -0.028676   0.000000  -0.020038   0.000157
     2  C   -1.957373   0.883911   0.364973   0.000297   0.032849  -0.038563
     3  C   -0.653757   0.303574  -0.532067   0.001176   0.547232   0.023317
     4  C   -0.127195  -0.656997  -2.442199  -0.003928  -0.057084   0.020996
     5  O    0.005592   0.013707   0.088736  -0.000702  -0.011410  -0.051838
     6  C   -0.090215  -0.080874  -0.778319  -0.022703  -0.001482   0.271526
     7  C    0.010841   0.013053   0.016829   0.099999   0.002359   0.634339
     8  C    0.002093   0.005083   0.008282  -0.050106  -0.005696  -0.396049
     9  N   -0.000008  -0.000034  -0.000389   0.020846  -0.000101  -0.012400
    10  C   -0.000017   0.000145   0.001002   0.170200  -0.000114  -0.000194
    11  C    0.000004   0.000011   0.000141  -0.036200  -0.000028   0.003965
    12  C    0.000061   0.000200   0.002090  -0.232885   0.000161  -0.006940
    13  C   -0.000831   0.040903   0.229234  -0.061645   0.001632   0.014181
    14  C    0.035631   0.003963   0.164959  -0.020998   0.000851   0.075488
    15  C    0.106495   0.110890   1.304624  -0.002729  -0.033644  -0.158428
    16  N    0.005104   0.091454   0.213972   0.000126  -0.000880   0.001085
    17  C   -0.156538  -0.994764  -0.452576  -0.009381  -0.015567  -0.122461
    18  C    2.367432  -2.406352  -1.686278  -0.000113   0.000004  -0.006489
    19  C   -0.435055  -0.169573  -1.538541   0.000139  -0.056663  -0.007085
    20  C   -3.495646  -1.781683   1.825241   0.000040  -0.029245  -0.001735
    21  C    0.267798  -0.431402   0.287149   0.000002  -0.006361  -0.000747
    22  F    0.064986   0.024396  -0.006029   0.000000  -0.000121   0.000000
    23  F    0.001852   0.011997   0.002633   0.000000  -0.000085   0.000001
    24  F   -0.178850   0.109764   0.024833   0.000000   0.000016   0.000000
    25  C   13.448689   0.620925  -3.601664  -0.000005  -0.005855  -0.000027
    26  C    0.620925  10.409881   0.186114  -0.000022   0.003526  -0.000485
    27  C   -3.601664   0.186114  12.018761  -0.000300  -0.019179  -0.005704
    28  C   -0.000005  -0.000022  -0.000300   5.555255  -0.000044  -0.021774
    29  H   -0.005855   0.003526  -0.019179  -0.000044   0.447347  -0.003667
    30  H   -0.000027  -0.000485  -0.005704  -0.021774  -0.003667   0.578910
    31  H   -0.000001   0.000004   0.000033   0.007366   0.000002  -0.002595
    32  H   -0.000014  -0.000065  -0.000490   0.008864   0.000008   0.000475
    33  H    0.000000   0.000001   0.000007  -0.000793  -0.000001   0.000258
    34  H   -0.000001  -0.000007  -0.000063   0.005932   0.000000   0.001661
    35  H   -0.000002  -0.000007  -0.000035   0.002130   0.000007  -0.002354
    36  H    0.000003   0.000011   0.000106  -0.080560  -0.000006   0.006748
    37  H    0.000006   0.000003   0.000382  -0.063253   0.000322  -0.057959
    38  H    0.000467   0.002173   0.010674  -0.003092  -0.000014   0.003510
    39  H   -0.002083  -0.007439  -0.020482  -0.000101  -0.000094   0.002796
    40  H    0.486558  -0.059783  -0.030164   0.000000  -0.000079  -0.000003
    41  H   -0.059990   0.429475  -0.046491   0.000000   0.000015   0.000034
    42  H   -0.036425  -0.155107   0.475923   0.000006  -0.000205  -0.000221
    43  H   -0.000001  -0.000001  -0.000028   0.445048   0.000013   0.000424
    44  H    0.000002  -0.000001   0.000008   0.372315   0.000011  -0.001307
    45  H    0.000003   0.000010   0.000074   0.349323   0.000043  -0.014416
              31         32         33         34         35         36
     1  O    0.000000   0.000000   0.000000   0.000000   0.000000   0.000000
     2  C   -0.000040   0.000095  -0.000003   0.000014   0.000033  -0.000128
     3  C   -0.000263   0.000686   0.000000   0.000100   0.000072  -0.000351
     4  C    0.000136   0.004086  -0.000430   0.000557   0.001143  -0.000289
     5  O    0.000059   0.000104  -0.000027  -0.000011   0.000038   0.000240
     6  C    0.008113  -0.015825  -0.003504   0.000985  -0.005008  -0.008287
     7  C   -0.016382   0.022108   0.000906   0.030159  -0.029532  -0.033763
     8  C    0.027334   0.058193  -0.006341  -0.027701   0.002378   0.014904
     9  N   -0.080084  -0.042860   0.023679  -0.001608  -0.011121  -0.072987
    10  C    0.506910   0.500116  -0.090391   0.041879   0.055040   0.013833
    11  C   -0.088985  -0.054976   0.435724   0.387143   0.347235   0.008759
    12  C    0.013320  -0.058779   0.005382  -0.045516   0.010968   0.504578
    13  C    0.006291  -0.044093   0.014215  -0.017601   0.010359  -0.015823
    14  C   -0.025067  -0.046440   0.011700  -0.000353  -0.026932  -0.002704
    15  C   -0.015527   0.018097   0.003362  -0.004930   0.001348   0.008751
    16  N   -0.000004   0.000177  -0.000001  -0.000010   0.000185  -0.000023
    17  C   -0.001266   0.000250  -0.000251  -0.001192   0.002879   0.003776
    18  C    0.000063  -0.000258   0.000016  -0.000005  -0.000095  -0.000025
    19  C   -0.000029   0.000124  -0.000003   0.000001   0.000058  -0.000018
    20  C    0.000003   0.000017   0.000000   0.000004  -0.000001  -0.000019
    21  C    0.000000   0.000002   0.000000   0.000000   0.000000  -0.000002
    22  F    0.000000   0.000000   0.000000   0.000000   0.000000   0.000000
    23  F    0.000000   0.000000   0.000000   0.000000   0.000000   0.000000
    24  F    0.000000   0.000000   0.000000   0.000000   0.000000   0.000000
    25  C   -0.000001  -0.000014   0.000000  -0.000001  -0.000002   0.000003
    26  C    0.000004  -0.000065   0.000001  -0.000007  -0.000007   0.000011
    27  C    0.000033  -0.000490   0.000007  -0.000063  -0.000035   0.000106
    28  C    0.007366   0.008864  -0.000793   0.005932   0.002130  -0.080560
    29  H    0.000002   0.000008  -0.000001   0.000000   0.000007  -0.000006
    30  H   -0.002595   0.000475   0.000258   0.001661  -0.002354   0.006748
    31  H    0.498666  -0.043113  -0.007957  -0.000345   0.008904  -0.014522
    32  H   -0.043113   0.563945  -0.001256   0.013122  -0.012623   0.004059
    33  H   -0.007957  -0.001256   0.504003  -0.021863  -0.028522  -0.000517
    34  H   -0.000345   0.013122  -0.021863   0.551141  -0.058623  -0.005194
    35  H    0.008904  -0.012623  -0.028522  -0.058623   0.583290   0.001862
    36  H   -0.014522   0.004059  -0.000517  -0.005194   0.001862   0.497154
    37  H    0.005041  -0.008115   0.000492  -0.010019   0.002565  -0.040312
    38  H    0.009633  -0.044693  -0.002515  -0.002759  -0.001569  -0.002456
    39  H   -0.000113   0.004327   0.000096   0.000440  -0.000060   0.000037
    40  H    0.000000   0.000000   0.000000   0.000000   0.000000   0.000000
    41  H    0.000000   0.000001   0.000000   0.000000   0.000000   0.000000
    42  H   -0.000005  -0.000068   0.000000  -0.000001  -0.000014  -0.000007
    43  H   -0.000558   0.000598  -0.000075   0.000594  -0.000195  -0.006788
    44  H   -0.004829  -0.009322   0.000684  -0.004548   0.000670  -0.000241
    45  H    0.001266   0.002434  -0.000221   0.000656   0.000702   0.009456
              37         38         39         40         41         42
     1  O   -0.000006  -0.000002   0.000010   0.000193   0.000093  -0.000269
     2  C    0.002062  -0.001710   0.001909   0.004014  -0.003752  -0.013050
     3  C   -0.002407  -0.009414   0.011416   0.006116   0.003905  -0.022919
     4  C    0.009170  -0.048372   0.057419  -0.002915   0.013738  -0.037279
     5  O    0.003586   0.002012  -0.001843   0.000054  -0.000092  -0.000838
     6  C   -0.024922  -0.029658   0.086053  -0.001772   0.005151  -0.002455
     7  C   -0.077790  -0.010888   0.008771   0.000148  -0.000037  -0.001213
     8  C    0.048949  -0.233101   0.073580  -0.000011   0.000239  -0.003649
     9  N   -0.057154  -0.013646  -0.005305   0.000000  -0.000001   0.000045
    10  C   -0.063152   0.000587   0.007230   0.000000   0.000004  -0.000158
    11  C    0.003128  -0.002357  -0.002414   0.000000   0.000000   0.000040
    12  C    0.517363   0.003010  -0.003867   0.000000  -0.000001  -0.000051
    13  C    0.014501   0.696496  -0.062928   0.000006   0.000257  -0.005770
    14  C   -0.002410   0.090265   0.223896   0.000405  -0.002227   0.017585
    15  C    0.030958  -0.107510  -0.057915   0.001199  -0.004087   0.055072
    16  N   -0.000312   0.001844  -0.001453   0.000145   0.000090  -0.003271
    17  C    0.016370  -0.014601   0.026015  -0.009683   0.005696  -0.007073
    18  C    0.000664   0.004492  -0.007066   0.023469   0.007486   0.059391
    19  C    0.000211  -0.002741   0.003582   0.027212  -0.005734   0.016256
    20  C    0.000015  -0.000275   0.000585  -0.015475  -0.005005   0.026818
    21  C    0.000013  -0.000041   0.000242  -0.059014   0.000144  -0.010473
    22  F    0.000000   0.000000   0.000000  -0.001991   0.000424  -0.000009
    23  F    0.000000   0.000000  -0.000001  -0.001697   0.000322   0.000067
    24  F    0.000000   0.000000   0.000000  -0.000620   0.000511   0.000188
    25  C    0.000006   0.000467  -0.002083   0.486558  -0.059990  -0.036425
    26  C    0.000003   0.002173  -0.007439  -0.059783   0.429475  -0.155107
    27  C    0.000382   0.010674  -0.020482  -0.030164  -0.046491   0.475923
    28  C   -0.063253  -0.003092  -0.000101   0.000000   0.000000   0.000006
    29  H    0.000322  -0.000014  -0.000094  -0.000079   0.000015  -0.000205
    30  H   -0.057959   0.003510   0.002796  -0.000003   0.000034  -0.000221
    31  H    0.005041   0.009633  -0.000113   0.000000   0.000000  -0.000005
    32  H   -0.008115  -0.044693   0.004327   0.000000   0.000001  -0.000068
    33  H    0.000492  -0.002515   0.000096   0.000000   0.000000   0.000000
    34  H   -0.010019  -0.002759   0.000440   0.000000   0.000000  -0.000001
    35  H    0.002565  -0.001569  -0.000060   0.000000   0.000000  -0.000014
    36  H   -0.040312  -0.002456   0.000037   0.000000   0.000000  -0.000007
    37  H    0.565802   0.002233  -0.000991   0.000000  -0.000002   0.000039
    38  H    0.002233   0.487182  -0.020804   0.000006  -0.000038   0.000845
    39  H   -0.000991  -0.020804   0.439726  -0.000070   0.000403  -0.003461
    40  H    0.000000   0.000006  -0.000070   0.448213  -0.010455   0.002766
    41  H   -0.000002  -0.000038   0.000403  -0.010455   0.441912  -0.009777
    42  H    0.000039   0.000845  -0.003461   0.002766  -0.009777   0.438246
    43  H   -0.005707  -0.000216  -0.000005   0.000000   0.000000   0.000000
    44  H    0.013479   0.001742  -0.000237   0.000000   0.000000   0.000005
    45  H   -0.008462  -0.001750   0.000148   0.000000   0.000000  -0.000014
              43         44         45
     1  O    0.000000   0.000000   0.000000
     2  C    0.000015   0.000034   0.001039
     3  C    0.000466  -0.000089   0.000813
     4  C    0.000870  -0.001468   0.005430
     5  O   -0.000175   0.000053   0.000635
     6  C    0.002299  -0.008247  -0.000479
     7  C    0.032201  -0.023741  -0.026346
     8  C   -0.013220  -0.034118   0.023196
     9  N    0.028201  -0.007022  -0.013612
    10  C    0.007598  -0.049074   0.006561
    11  C   -0.001131   0.008782   0.000650
    12  C   -0.097047   0.056797   0.051575
    13  C   -0.007080   0.032754  -0.025916
    14  C   -0.001137   0.012752  -0.016542
    15  C   -0.001359   0.007094   0.000341
    16  N    0.000017  -0.000061   0.000185
    17  C   -0.001192   0.001291   0.004112
    18  C   -0.000044   0.000017  -0.000415
    19  C    0.000016   0.000004   0.000486
    20  C    0.000001  -0.000002   0.000018
    21  C    0.000000   0.000000   0.000009
    22  F    0.000000   0.000000   0.000000
    23  F    0.000000   0.000000   0.000000
    24  F    0.000000   0.000000   0.000000
    25  C   -0.000001   0.000002   0.000003
    26  C   -0.000001  -0.000001   0.000010
    27  C   -0.000028   0.000008   0.000074
    28  C    0.445048   0.372315   0.349323
    29  H    0.000013   0.000011   0.000043
    30  H    0.000424  -0.001307  -0.014416
    31  H   -0.000558  -0.004829   0.001266
    32  H    0.000598  -0.009322   0.002434
    33  H   -0.000075   0.000684  -0.000221
    34  H    0.000594  -0.004548   0.000656
    35  H   -0.000195   0.000670   0.000702
    36  H   -0.006788  -0.000241   0.009456
    37  H   -0.005707   0.013479  -0.008462
    38  H   -0.000216   0.001742  -0.001750
    39  H   -0.000005  -0.000237   0.000148
    40  H    0.000000   0.000000   0.000000
    41  H    0.000000   0.000000   0.000000
    42  H    0.000000   0.000005  -0.000014
    43  H    0.512311  -0.026400  -0.029453
    44  H   -0.026400   0.555738  -0.058481
    45  H   -0.029453  -0.058481   0.588925
 Mulliken charges:
               1
     1  O   -0.388943
     2  C   -0.652798
     3  C   -0.642716
     4  C    0.269808
     5  O   -0.089725
     6  C    0.239986
     7  C   -0.262374
     8  C   -0.248385
     9  N    0.235793
    10  C   -0.320878
    11  C   -0.443023
    12  C   -0.335399
    13  C   -0.186559
    14  C   -0.396270
    15  C    0.171946
    16  N    0.124608
    17  C    0.070824
    18  C    0.056637
    19  C    0.224332
    20  C    0.253288
    21  C    0.865420
    22  F   -0.080196
    23  F   -0.065534
    24  F   -0.163763
    25  C   -0.633456
    26  C   -0.518291
    27  C   -0.037106
    28  C   -0.427727
    29  H    0.231266
    30  H    0.273570
    31  H    0.208539
    32  H    0.181101
    33  H    0.164145
    34  H    0.167962
    35  H    0.144827
    36  H    0.210745
    37  H    0.185621
    38  H    0.237051
    39  H    0.250048
    40  H    0.193228
    41  H    0.237788
    42  H    0.220492
    43  H    0.161143
    44  H    0.164957
    45  H    0.148020
 Sum of Mulliken charges =   0.00000
 Mulliken charges with hydrogens summed into heavy atoms:
               1
     1  O   -0.388943
     2  C   -0.652798
     3  C   -0.411450
     4  C    0.269808
     5  O   -0.089725
     6  C    0.239986
     7  C    0.011196
     8  C   -0.248385
     9  N    0.235793
    10  C    0.068761
    11  C    0.033911
    12  C    0.060967
    13  C    0.050492
    14  C   -0.146222
    15  C    0.171946
    16  N    0.124608
    17  C    0.070824
    18  C    0.056637
    19  C    0.224332
    20  C    0.253288
    21  C    0.865420
    22  F   -0.080196
    23  F   -0.065534
    24  F   -0.163763
    25  C   -0.440228
    26  C   -0.280503
    27  C    0.183386
    28  C    0.046392
 Electronic spatial extent (au):  <R**2>=          32339.0880
 Charge=              0.0000 electrons
 Dipole moment (field-independent basis, Debye):
    X=             19.9288    Y=             13.8327    Z=              2.7008  Tot=             24.4089
 Quadrupole moment (field-independent basis, Debye-Ang):
   XX=           -279.6662   YY=           -223.2666   ZZ=           -168.4511
   XY=           -104.9989   XZ=            -21.0233   YZ=             -8.9006
 Traceless Quadrupole moment (field-independent basis, Debye-Ang):
   XX=            -55.8715   YY=              0.5280   ZZ=             55.3436
   XY=           -104.9989   XZ=            -21.0233   YZ=             -8.9006
 Octapole moment (field-independent basis, Debye-Ang**2):
  XXX=           3065.0016  YYY=           1188.3904  ZZZ=            122.0024  XYY=           1247.7394
  XXY=           1117.5677  XXZ=            214.7906  XZZ=            741.8870  YZZ=            287.7284
  YYZ=            105.8027  XYZ=             94.7289
 Hexadecapole moment (field-independent basis, Debye-Ang**3):
 XXXX=         -41767.7383 YYYY=          -8877.6472 ZZZZ=           -593.7902 XXXY=         -13139.2570
 XXXZ=          -2537.0820 YYYX=          -8987.2228 YYYZ=           -847.3164 ZZZX=          -1040.1682
 ZZZY=           -561.6969 XXYY=         -11230.4005 XXZZ=          -6159.1770 YYZZ=          -1334.9209
 XXYZ=           -946.9264 YYXZ=           -844.9975 ZZXY=          -2165.9769
 N-N= 2.505320940855D+03 E-N=-8.215512629768D+03  KE= 1.363966759623D+03
 No NMR shielding tensors so no spin-rotation constants.
 Leave Link  601 at Mon Feb 17 13:49:28 2020, MaxMem=  6710886400 cpu:         7.4
 (Enter /opt/sys/apps/gaussian09/D.01/g09/l9999.exe)

 Test job not archived.
 1\1\GINC-S51P21\SP\RCAM-B3LYP TD-FC\6-311++G(d,p)\C21H17F3N2O2\SALVATO
 RE\17-Feb-2020\0\\#p CAM-B3LYP/6-311++G** nosym density=current geom=a
 llcheck EmpiricalDispersion=GD3 SCRF=(CPCM, solvent=ethanol) IOP(10/74
 =10) TD=(NSTATES=10,ROOT=1,NONEQ) iop(3/119=0810000000) iop(3/120=0810
 000000)\\NRA_NRA1\\0,1\O,0,-6.8559164535,-5.1761870779,-0.8765706926\C
 ,0,-6.3810703077,-4.0472201,-0.7039336088\C,0,-4.951580135,-3.84844758
 5,-0.7283079159\C,0,-4.3877069188,-2.6452087394,-0.45539919\O,0,-3.029
 0174485,-2.5394803601,-0.4841238765\C,0,-2.436121098,-1.3424592565,-0.
 1869369117\C,0,-1.0628211904,-1.2777014454,-0.2243757933\C,0,-0.405540
 6556,-0.0581102488,0.0863740934\N,0,0.9496795852,0.0421087143,0.045216
 8749\C,0,1.6615740315,1.2518741692,0.4781699091\C,0,1.8329432996,2.278
 4910056,-0.6439318459\C,0,1.7960308316,-1.0536327653,-0.4438017985\C,0
 ,-1.223727519,1.0645887292,0.4403572352\C,0,-2.5924209787,0.9692692219
 ,0.4678459693\C,0,-3.2534262335,-0.2381968116,0.1522538827\N,0,-4.6089
 185209,-0.3294016956,0.1695915492\C,0,-5.1698879006,-1.4778000875,-0.1
 264609122\C,0,-6.6294277979,-1.6108013132,-0.1360227856\C,0,-7.2478830
 398,-2.8476257026,-0.4514264605\C,0,-8.6697139161,-2.8900588995,-0.487
 5831145\C,0,-9.4755311962,-4.1246450335,-0.8614700976\F,0,-9.160648862
 5,-4.6214574985,-2.0785828933\F,0,-9.3838289804,-5.124207694,0.0447387
 672\F,0,-10.8086942991,-3.8405014871,-0.9347383744\C,0,-9.411020517,-1
 .75206026,-0.1884433755\C,0,-8.7824527273,-0.5501500988,0.1457457582\C
 ,0,-7.4066305449,-0.4781517717,0.1638773268\C,0,2.1870251863,-2.044855
 0222,0.6552732987\H,0,-4.3324614232,-4.7092756177,-0.9462195415\H,0,-0
 .5194181845,-2.1766064592,-0.4731409866\H,0,2.6390774145,0.9319419952,
 0.8446563198\H,0,1.1487097293,1.6897697202,1.3356678934\H,0,2.39065645
 56,3.1443056081,-0.277883855\H,0,2.3841586488,1.8460525286,-1.48266831
 98\H,0,0.8648129076,2.6230081944,-1.0139374203\H,0,2.691132462,-0.5993
 216313,-0.8735819901\H,0,1.2913772742,-1.5611747791,-1.2677789947\H,0,
 -0.7682290753,2.0156517754,0.6710005327\H,0,-3.1982625963,1.8300002941
 ,0.725745853\H,0,-10.4900128776,-1.7885878812,-0.2177083887\H,0,-9.381
 3085979,0.3217491211,0.3789089353\H,0,-6.9023055877,0.4475111652,0.405
 7935015\H,0,2.8288470422,-2.827515941,0.2426988045\H,0,2.7348166699,-1
 .5394734267,1.4545845414\H,0,1.3052440456,-2.5180055522,1.092928097\\V
 ersion=ES64L-G09RevD.01\HF=-1368.8127729\RMSD=4.493e-09\Dipole=7.84060
 5,5.4421889,1.0625739\Quadrupole=-41.5391232,0.392542,41.1465811,-78.0
 641056,-15.6303045,-6.6173708\PG=C01 [X(C21H17F3N2O2)]\\@


 UNLESS WE CHANGE DIRECTIONS, WE WILL WIND UP WHERE WE ARE HEADED.
     -- CONFUCIUS
 Job cpu time:       0 days 18 hours 52 minutes  9.1 seconds.
 File lengths (MBytes):  RWF=   1561 Int=      0 D2E=      0 Chk=    268 Scr=      1
 Normal termination of Gaussian 09 at Mon Feb 17 13:49:29 2020.
