 Entering Gaussian System, Link 0=g09
 Initial command:
 /opt/sys/apps/gaussian09/D.01/g09/l1.exe "/tmp/Gau-16800.inp" -scrdir="/tmp/"
 Entering Link 1 = /opt/sys/apps/gaussian09/D.01/g09/l1.exe PID=     16801.
  
 Copyright (c) 1988,1990,1992,1993,1995,1998,2003,2009,2013,
            Gaussian, Inc.  All Rights Reserved.
  
 This is part of the Gaussian(R) 09 program.  It is based on
 the Gaussian(R) 03 system (copyright 2003, Gaussian, Inc.),
 the Gaussian(R) 98 system (copyright 1998, Gaussian, Inc.),
 the Gaussian(R) 94 system (copyright 1995, Gaussian, Inc.),
 the Gaussian 92(TM) system (copyright 1992, Gaussian, Inc.),
 the Gaussian 90(TM) system (copyright 1990, Gaussian, Inc.),
 the Gaussian 88(TM) system (copyright 1988, Gaussian, Inc.),
 the Gaussian 86(TM) system (copyright 1986, Carnegie Mellon
 University), and the Gaussian 82(TM) system (copyright 1983,
 Carnegie Mellon University). Gaussian is a federally registered
 trademark of Gaussian, Inc.
  
 This software contains proprietary and confidential information,
 including trade secrets, belonging to Gaussian, Inc.
  
 This software is provided under written license and may be
 used, copied, transmitted, or stored only in accord with that
 written license.
  
 The following legend is applicable only to US Government
 contracts under FAR:
  
                    RESTRICTED RIGHTS LEGEND
  
 Use, reproduction and disclosure by the US Government is
 subject to restrictions as set forth in subparagraphs (a)
 and (c) of the Commercial Computer Software - Restricted
 Rights clause in FAR 52.227-19.
  
 Gaussian, Inc.
 340 Quinnipiac St., Bldg. 40, Wallingford CT 06492
  
  
 ---------------------------------------------------------------
 Warning -- This program may not be used in any manner that
 competes with the business of Gaussian, Inc. or will provide
 assistance to any competitor of Gaussian, Inc.  The licensee
 of this program is prohibited from giving any competitor of
 Gaussian, Inc. access to this program.  By using this program,
 the user acknowledges that Gaussian, Inc. is engaged in the
 business of creating and licensing software in the field of
 computational chemistry and represents and warrants to the
 licensee that it is not a competitor of Gaussian, Inc. and that
 it will not use this program in any manner prohibited above.
 ---------------------------------------------------------------
  

 Cite this work as:
 Gaussian 09, Revision D.01,
 M. J. Frisch, G. W. Trucks, H. B. Schlegel, G. E. Scuseria, 
 M. A. Robb, J. R. Cheeseman, G. Scalmani, V. Barone, B. Mennucci, 
 G. A. Petersson, H. Nakatsuji, M. Caricato, X. Li, H. P. Hratchian, 
 A. F. Izmaylov, J. Bloino, G. Zheng, J. L. Sonnenberg, M. Hada, 
 M. Ehara, K. Toyota, R. Fukuda, J. Hasegawa, M. Ishida, T. Nakajima, 
 Y. Honda, O. Kitao, H. Nakai, T. Vreven, J. A. Montgomery, Jr., 
 J. E. Peralta, F. Ogliaro, M. Bearpark, J. J. Heyd, E. Brothers, 
 K. N. Kudin, V. N. Staroverov, T. Keith, R. Kobayashi, J. Normand, 
 K. Raghavachari, A. Rendell, J. C. Burant, S. S. Iyengar, J. Tomasi, 
 M. Cossi, N. Rega, J. M. Millam, M. Klene, J. E. Knox, J. B. Cross, 
 V. Bakken, C. Adamo, J. Jaramillo, R. Gomperts, R. E. Stratmann, 
 O. Yazyev, A. J. Austin, R. Cammi, C. Pomelli, J. W. Ochterski, 
 R. L. Martin, K. Morokuma, V. G. Zakrzewski, G. A. Voth, 
 P. Salvador, J. J. Dannenberg, S. Dapprich, A. D. Daniels, 
 O. Farkas, J. B. Foresman, J. V. Ortiz, J. Cioslowski, 
 and D. J. Fox, Gaussian, Inc., Wallingford CT, 2013.
 
 ******************************************
 Gaussian 09:  ES64L-G09RevD.01 24-Apr-2013
                15-Jan-2020 
 ******************************************
 %NProcShared=24
 Will use up to   24 processors via shared memory.
 %mem=50GB
 %oldChk=checkpointCPCM_water.chk
 %Chk=checkpointCPCMES_wat.chk
 Copying data from "checkpointCPCM_water.chk" to current chk file "checkpointCPCMES_wat.chk".
 ----------------------------------------------------------------------
 #p CAM-B3LYP/6-311++G** nosym density=current geom=allcheck EmpiricalD
 ispersion=GD3 SCRF=(CPCM, solvent=water) IOP(10/74=10) TD=(NSTATES=2,R
 OOT=1,NONEQ) iop(3/119=0810000000) iop(3/120=0810000000)
 ----------------------------------------------------------------------
 1/29=7,30=1,38=1/1;
 2/12=2,15=1,40=1/2;
 3/5=4,6=6,7=1111,11=9,14=-4,16=1,25=1,30=1,70=2101,71=1,72=1,74=-40,119=810000000,120=810000000,124=31/1,2,8,3;
 4//1;
 5/5=2,38=5,53=1/2;
 8/6=1,10=2,107=1,108=2/1;
 9/8=1,15=1,41=2,42=1,70=2,73=1/14;
 10/5=4,13=10,31=1,74=10/2;
 6/7=2,8=2,9=2,10=2,22=-1/1;
 99/5=1,9=1/99;
 Leave Link    1 at Wed Jan 15 17:15:34 2020, MaxMem=  6710886400 cpu:        14.6
 (Enter /opt/sys/apps/gaussian09/D.01/g09/l101.exe)
 Structure from the checkpoint file:  "checkpointCPCMES_wat.chk"
 --------
 NRA_NRA1
 --------
 Charge =  0 Multiplicity = 1
 Redundant internal coordinates found in file.
 O,0,-6.8558996343,-5.1766712026,-0.8777892392
 C,0,-6.380595088,-4.0472243487,-0.7044504079
 C,0,-4.9516910136,-3.8485811398,-0.7284639003
 C,0,-4.3877286354,-2.6449835373,-0.4551580025
 O,0,-3.0292642579,-2.5395424599,-0.4837873009
 C,0,-2.4359297125,-1.3426888506,-0.1866552833
 C,0,-1.0628960385,-1.278050432,-0.2242690739
 C,0,-0.4055448269,-0.0582374252,0.0865841325
 N,0,0.949052538,0.042159861,0.0452135672
 C,0,1.6611800218,1.2522676677,0.4776662729
 C,0,1.8321489623,2.2781142995,-0.6451155484
 C,0,1.7958102198,-1.0536997874,-0.443464734
 C,0,-1.2239071712,1.064678883,0.4409736612
 C,0,-2.5922946096,0.9695315167,0.4685048295
 C,0,-3.2535200625,-0.2381798542,0.1527314486
 N,0,-4.6083057827,-0.3294063335,0.1701437661
 C,0,-5.1696835861,-1.4781415619,-0.1261547087
 C,0,-6.6288978914,-1.6111413908,-0.1356903136
 C,0,-7.247322287,-2.8480312057,-0.4516727446
 C,0,-8.6693624477,-2.8901805225,-0.4879671176
 C,0,-9.475281192,-4.1240678161,-0.8629051932
 F,0,-9.1602520919,-4.6206682796,-2.0803965405
 F,0,-9.3842759296,-5.1249288527,0.0424797032
 F,0,-10.8083706473,-3.8401693026,-0.9365280167
 C,0,-9.4107098525,-1.7524201125,-0.188230963
 C,0,-8.7821140078,-0.5506466409,0.1467507121
 C,0,-7.4063600342,-0.4786867316,0.164849043
 C,0,2.1870879991,-2.0439102451,0.6563578372
 H,0,-4.3320444908,-4.7090640765,-0.946336192
 H,0,-0.5193267999,-2.1767898073,-0.4732206558
 H,0,2.6386873503,0.9322192523,0.8438545194
 H,0,1.1485685555,1.6904479505,1.3350925343
 H,0,2.3902457822,3.1438506609,-0.2795515199
 H,0,2.3829069201,1.8451000315,-1.4838347028
 H,0,0.863902726,2.6227681901,-1.0147005724
 H,0,2.6906285976,-0.599132775,-0.8734073367
 H,0,1.2912364415,-1.5617826077,-1.2670876142
 H,0,-0.7682546288,2.0156043565,0.6717960807
 H,0,-3.1980068756,1.830299039,0.7265556443
 H,0,-10.4897039578,-1.7886747703,-0.2176014539
 H,0,-9.3809816657,0.3210819977,0.3804425423
 H,0,-6.9022349921,0.4469484048,0.4072628749
 H,0,2.8293541259,-2.82636015,0.2441394972
 H,0,2.7345607823,-1.5376872411,1.4553284746
 H,0,1.3054891887,-2.5173226499,1.0941119947
 Recover connectivity data from disk.
 NAtoms=     45 NQM=       45 NQMF=       0 NMMI=      0 NMMIF=      0
                NMic=       0 NMicF=      0.
                    Isotopes and Nuclear Properties:
 (Nuclear quadrupole moments (NQMom) in fm**2, nuclear magnetic moments (NMagM)
  in nuclear magnetons)

  Atom         1           2           3           4           5           6           7           8           9          10
 IAtWgt=          16          12          12          12          16          12          12          12          14          12
 AtmWgt=  15.9949146  12.0000000  12.0000000  12.0000000  15.9949146  12.0000000  12.0000000  12.0000000  14.0030740  12.0000000
 NucSpn=           0           0           0           0           0           0           0           0           2           0
 AtZEff=  -5.6000000  -3.6000000  -3.6000000  -3.6000000  -5.6000000  -3.6000000  -3.6000000  -3.6000000  -4.5500000  -3.6000000
 NQMom=    0.0000000   0.0000000   0.0000000   0.0000000   0.0000000   0.0000000   0.0000000   0.0000000   2.0440000   0.0000000
 NMagM=    0.0000000   0.0000000   0.0000000   0.0000000   0.0000000   0.0000000   0.0000000   0.0000000   0.4037610   0.0000000
 AtZNuc=   8.0000000   6.0000000   6.0000000   6.0000000   8.0000000   6.0000000   6.0000000   6.0000000   7.0000000   6.0000000

  Atom        11          12          13          14          15          16          17          18          19          20
 IAtWgt=          12          12          12          12          12          14          12          12          12          12
 AtmWgt=  12.0000000  12.0000000  12.0000000  12.0000000  12.0000000  14.0030740  12.0000000  12.0000000  12.0000000  12.0000000
 NucSpn=           0           0           0           0           0           2           0           0           0           0
 AtZEff=  -3.6000000  -3.6000000  -3.6000000  -3.6000000  -3.6000000  -4.5500000  -3.6000000  -3.6000000  -3.6000000  -3.6000000
 NQMom=    0.0000000   0.0000000   0.0000000   0.0000000   0.0000000   2.0440000   0.0000000   0.0000000   0.0000000   0.0000000
 NMagM=    0.0000000   0.0000000   0.0000000   0.0000000   0.0000000   0.4037610   0.0000000   0.0000000   0.0000000   0.0000000
 AtZNuc=   6.0000000   6.0000000   6.0000000   6.0000000   6.0000000   7.0000000   6.0000000   6.0000000   6.0000000   6.0000000

  Atom        21          22          23          24          25          26          27          28          29          30
 IAtWgt=          12          19          19          19          12          12          12          12           1           1
 AtmWgt=  12.0000000  18.9984033  18.9984033  18.9984033  12.0000000  12.0000000  12.0000000  12.0000000   1.0078250   1.0078250
 NucSpn=           0           1           1           1           0           0           0           0           1           1
 AtZEff=  -3.6000000  -6.7500000  -6.7500000  -6.7500000  -3.6000000  -3.6000000  -3.6000000  -3.6000000  -1.0000000  -1.0000000
 NQMom=    0.0000000   0.0000000   0.0000000   0.0000000   0.0000000   0.0000000   0.0000000   0.0000000   0.0000000   0.0000000
 NMagM=    0.0000000   2.6288670   2.6288670   2.6288670   0.0000000   0.0000000   0.0000000   0.0000000   2.7928460   2.7928460
 AtZNuc=   6.0000000   9.0000000   9.0000000   9.0000000   6.0000000   6.0000000   6.0000000   6.0000000   1.0000000   1.0000000

  Atom        31          32          33          34          35          36          37          38          39          40
 IAtWgt=           1           1           1           1           1           1           1           1           1           1
 AtmWgt=   1.0078250   1.0078250   1.0078250   1.0078250   1.0078250   1.0078250   1.0078250   1.0078250   1.0078250   1.0078250
 NucSpn=           1           1           1           1           1           1           1           1           1           1
 AtZEff=  -1.0000000  -1.0000000  -1.0000000  -1.0000000  -1.0000000  -1.0000000  -1.0000000  -1.0000000  -1.0000000  -1.0000000
 NQMom=    0.0000000   0.0000000   0.0000000   0.0000000   0.0000000   0.0000000   0.0000000   0.0000000   0.0000000   0.0000000
 NMagM=    2.7928460   2.7928460   2.7928460   2.7928460   2.7928460   2.7928460   2.7928460   2.7928460   2.7928460   2.7928460
 AtZNuc=   1.0000000   1.0000000   1.0000000   1.0000000   1.0000000   1.0000000   1.0000000   1.0000000   1.0000000   1.0000000

  Atom        41          42          43          44          45
 IAtWgt=           1           1           1           1           1
 AtmWgt=   1.0078250   1.0078250   1.0078250   1.0078250   1.0078250
 NucSpn=           1           1           1           1           1
 AtZEff=  -1.0000000  -1.0000000  -1.0000000  -1.0000000  -1.0000000
 NQMom=    0.0000000   0.0000000   0.0000000   0.0000000   0.0000000
 NMagM=    2.7928460   2.7928460   2.7928460   2.7928460   2.7928460
 AtZNuc=   1.0000000   1.0000000   1.0000000   1.0000000   1.0000000
 Leave Link  101 at Wed Jan 15 17:15:34 2020, MaxMem=  6710886400 cpu:         6.7
 (Enter /opt/sys/apps/gaussian09/D.01/g09/l202.exe)
                          Input orientation:                          
 ---------------------------------------------------------------------
 Center     Atomic      Atomic             Coordinates (Angstroms)
 Number     Number       Type             X           Y           Z
 ---------------------------------------------------------------------
      1          8           0       -6.855900   -5.176671   -0.877789
      2          6           0       -6.380595   -4.047224   -0.704450
      3          6           0       -4.951691   -3.848581   -0.728464
      4          6           0       -4.387729   -2.644984   -0.455158
      5          8           0       -3.029264   -2.539542   -0.483787
      6          6           0       -2.435930   -1.342689   -0.186655
      7          6           0       -1.062896   -1.278050   -0.224269
      8          6           0       -0.405545   -0.058237    0.086584
      9          7           0        0.949053    0.042160    0.045214
     10          6           0        1.661180    1.252268    0.477666
     11          6           0        1.832149    2.278114   -0.645116
     12          6           0        1.795810   -1.053700   -0.443465
     13          6           0       -1.223907    1.064679    0.440974
     14          6           0       -2.592295    0.969532    0.468505
     15          6           0       -3.253520   -0.238180    0.152731
     16          7           0       -4.608306   -0.329406    0.170144
     17          6           0       -5.169684   -1.478142   -0.126155
     18          6           0       -6.628898   -1.611141   -0.135690
     19          6           0       -7.247322   -2.848031   -0.451673
     20          6           0       -8.669362   -2.890181   -0.487967
     21          6           0       -9.475281   -4.124068   -0.862905
     22          9           0       -9.160252   -4.620668   -2.080397
     23          9           0       -9.384276   -5.124929    0.042480
     24          9           0      -10.808371   -3.840169   -0.936528
     25          6           0       -9.410710   -1.752420   -0.188231
     26          6           0       -8.782114   -0.550647    0.146751
     27          6           0       -7.406360   -0.478687    0.164849
     28          6           0        2.187088   -2.043910    0.656358
     29          1           0       -4.332044   -4.709064   -0.946336
     30          1           0       -0.519327   -2.176790   -0.473221
     31          1           0        2.638687    0.932219    0.843855
     32          1           0        1.148569    1.690448    1.335093
     33          1           0        2.390246    3.143851   -0.279552
     34          1           0        2.382907    1.845100   -1.483835
     35          1           0        0.863903    2.622768   -1.014701
     36          1           0        2.690629   -0.599133   -0.873407
     37          1           0        1.291236   -1.561783   -1.267088
     38          1           0       -0.768255    2.015604    0.671796
     39          1           0       -3.198007    1.830299    0.726556
     40          1           0      -10.489704   -1.788675   -0.217601
     41          1           0       -9.380982    0.321082    0.380443
     42          1           0       -6.902235    0.446948    0.407263
     43          1           0        2.829354   -2.826360    0.244139
     44          1           0        2.734561   -1.537687    1.455328
     45          1           0        1.305489   -2.517323    1.094112
 ---------------------------------------------------------------------
                    Distance matrix (angstroms):
                    1          2          3          4          5
     1  O    0.000000
     2  C    1.237583   0.000000
     3  C    2.326399   1.442845   0.000000
     4  C    3.560889   2.449478   1.356981   0.000000
     5  O    4.663992   3.681469   2.338626   1.362851   0.000000
     6  C    5.891793   4.810718   3.591950   2.361691   1.368500
     7  C    7.013218   6.014717   4.688770   3.602267   2.350599
     8  C    8.290685   7.227654   5.974818   4.779386   3.655968
     9  N    9.434268   8.426672   7.110219   5.996027   4.772005
    10  C   10.756819   9.703204   8.438215   7.255896   6.107576
    11  C   11.450334  10.366417   9.141325   7.934725   6.846107
    12  C    9.593728   8.711080   7.308992   6.385019   5.048831
    13  C    8.509578   7.350849   6.277267   4.957259   4.135808
    14  C    7.600437   6.394911   5.496699   4.140224   3.662158
    15  C    6.199017   5.002217   4.085987   2.729224   2.398274
    16  N    5.444797   4.210474   3.648287   2.408642   2.793868
    17  C    4.133691   2.898434   2.455459   1.442642   2.415754
    18  C    3.649006   2.513890   2.858416   2.488720   3.733693
    19  C    2.399448   1.501059   2.519452   2.866795   4.229446
    20  C    2.944257   2.573727   3.846746   4.288774   5.650989
    21  C    2.823005   3.099693   4.533965   5.313863   6.648728
    22  F    2.658090   3.154134   4.487296   5.414953   6.668527
    23  F    2.691145   3.277415   4.676668   5.600291   6.880941
    24  F    4.172735   4.438685   5.860380   6.548651   7.900070
    25  C    4.327591   3.835910   4.956671   5.108646   6.436596
    26  C    5.114693   4.326418   5.129767   4.905014   6.119523
    27  C    4.843672   3.813441   4.263754   3.766880   4.881273
    28  C    9.692442   8.903385   7.492445   6.695145   5.362454
    29  H    2.567723   2.166356   1.082525   2.122448   2.572550
    30  H    7.022472   6.156822   4.744037   3.896674   2.536038
    31  H   11.420586  10.418232   9.107254   7.990891   6.778011
    32  H   10.776163   9.683436   8.494250   7.256139   6.217349
    33  H   12.453119  11.349879  10.148875   8.915289   7.855811
    34  H   11.620160  10.588952   9.315842   8.189050   7.036816
    35  H   10.974760   9.852299   8.705253   7.459352   6.487532
    36  H   10.587260   9.705925   8.305719   7.379944   6.052617
    37  H    8.921592   8.083995   6.670360   5.838082   4.498478
    38  H    9.549317   8.375578   7.338293   6.007637   5.215065
    39  H    8.065466   6.835344   6.119001   4.779125   4.537501
    40  H    5.011876   4.714111   5.930749   6.166344   7.502854
    41  H    6.179359   5.409382   6.183395   5.867568   7.019571
    42  H    5.768761   4.658927   4.852429   4.077567   4.971217
    43  H   10.029298   9.338817   7.907943   7.253151   5.910630
    44  H   10.519628   9.697860   8.317911   7.456747   6.163243
    45  H    8.807315   8.040604   6.651792   5.901632   4.613063
                    6          7          8          9         10
     6  C    0.000000
     7  C    1.375069   0.000000
     8  C    2.418044   1.420100   0.000000
     9  N    3.664652   2.421469   1.358943   0.000000
    10  C    4.895041   3.783624   2.478249   1.469184   0.000000
    11  C    5.615772   4.604857   3.316805   2.501181   1.530435
    12  C    4.249363   2.875862   2.473431   1.468575   2.486784
    13  C    2.767370   2.440667   1.433963   2.433911   2.891412
    14  C    2.408329   2.805463   2.446231   3.685150   4.262871
    15  C    1.415478   2.454036   2.854421   4.213285   5.145998
    16  N    2.423482   3.691262   4.212329   5.571167   6.473231
    17  C    2.737776   4.112830   4.975782   6.307108   7.381086
    18  C    4.201862   5.576663   6.418025   7.758316   8.792082
    19  C    5.048345   6.384644   7.408278   8.705209   9.850763
    20  C    6.429713   7.779899   8.754467  10.069598  11.171948
    21  C    7.599069   8.903701   9.984619  11.262720  12.438765
    22  F    7.716730   8.954634  10.107249  11.333941  12.575311
    23  F    7.914377   9.171423  10.309749  11.553203  12.761666
    24  F    8.769121  10.101784  11.116139  12.420680  13.543358
    25  C    6.986805   8.361359   9.167267  10.516639  11.491663
    26  C    6.404104   7.762287   8.391245   9.749735  10.602943
    27  C    5.057196   6.405461   7.013866   8.372485   9.236576
    28  C    4.751281   3.453178   3.315009   2.501583   3.342648
    29  H    3.937620   4.793805   6.173695   7.172676   8.572281
    30  H    2.109789   1.079434   2.194218   2.710839   4.173396
    31  H    5.655873   4.441610   3.289652   2.070000   1.091808
    32  H    4.936017   4.016736   2.651781   2.102486   1.090849
    33  H    6.590117   5.610745   4.266599   3.435549   2.164024
    34  H    5.921643   4.818105   3.723489   2.764873   2.172516
    35  H    5.224883   4.421959   3.164193   2.791094   2.177402
    36  H    5.225524   3.869271   3.286402   2.070799   2.512538
    37  H    3.886786   2.590350   2.640481   2.100442   3.331652
    38  H    3.846584   3.426063   2.185143   2.690025   2.553923
    39  H    3.388594   3.889036   3.431323   4.567250   4.899772
    40  H    8.066173   9.440630  10.236074  11.587328  12.544908
    41  H    7.164041   8.491964   8.988254  10.339235  11.081782
    42  H    4.848033   6.121465   6.524188   7.870048   8.601487
    43  H    5.487265   4.215007   4.260504   3.435624   4.249043
    44  H    5.428453   4.160425   3.731286   2.769906   3.145126
    45  H    4.125330   2.980465   3.160672   2.788940   3.836187
                   11         12         13         14         15
    11  C    0.000000
    12  C    3.338109   0.000000
    13  C    3.462874   3.793211   0.000000
    14  C    4.746392   4.917379   1.371968   0.000000
    15  C    5.729950   5.149394   2.428961   1.412621   0.000000
    16  N    6.995947   6.474088   3.670283   2.416725   1.357965
    17  C    7.962690   6.985624   4.728290   3.603839   2.299340
    18  C    9.326046   8.448738   6.058587   4.828984   3.655323
    19  C   10.428403   9.219433   7.237931   6.090139   4.809063
    20  C   11.705456  10.625181   8.481665   7.262435   6.064235
    21  C   12.995897  11.689337   9.834041   8.665617   7.405535
    22  F   13.057033  11.637788  10.082958   8.993625   7.686517
    23  F   13.456821  11.908206  10.249959   9.135368   7.840832
    24  F   14.046389  12.917929  10.854353   9.623474   8.440177
    25  C   11.952231  11.231182   8.680765   7.370964   6.349816
    26  C   11.013243  10.606314   7.734490   6.381875   5.537420
    27  C    9.675022   9.240164   6.378162   5.036345   4.159816
    28  C    4.527661   1.530760   4.620022   5.653195   5.754522
    29  H    9.322482   7.152983   6.702332   6.105322   4.728633
    30  H    5.040353   2.573339   3.440829   3.883733   3.409668
    31  H    2.163093   2.512271   3.885807   5.244564   6.046949
    32  H    2.175743   3.333547   2.611451   3.907013   4.949340
    33  H    1.092982   4.242600   4.231337   5.487528   6.593716
    34  H    1.092834   3.135298   4.162097   5.415799   6.227978
    35  H    1.092191   3.835515   2.984222   4.108332   5.147921
    36  H    3.011255   1.091871   4.451905   5.671923   6.042860
    37  H    3.927371   1.091374   4.017676   4.949914   4.941925
    38  H    2.926648   4.151971   1.079425   2.112515   3.394925
    39  H    5.233019   5.884268   2.136539   1.083697   2.147315
    40  H   12.982665  12.309552   9.717527   8.393302   7.409692
    41  H   11.428738  11.291126   8.191121   6.820155   6.157143
    42  H    8.986108   8.867450   5.711929   4.341938   3.721197
    43  H    5.276443   2.164102   5.622086   6.622191   6.611232
    44  H    4.448208   2.172766   4.844656   5.969536   6.264391
    45  H    5.128206   2.178703   4.433415   5.267092   5.183170
                   16         17         18         19         20
    16  N    0.000000
    17  C    1.312452   0.000000
    18  C    2.412296   1.465294   0.000000
    19  C    3.700613   2.509809   1.418517   0.000000
    20  C    4.845911   3.791110   2.433831   1.423128   0.000000
    21  C    6.257323   5.107044   3.865946   2.600227   1.520711
    22  F    6.648314   5.442350   4.387128   3.074782   2.402372
    23  F    6.769285   5.575866   4.468843   3.161490   2.405530
    24  F    7.210477   6.166901   4.803946   3.728336   2.383074
    25  C    5.021602   4.250340   2.785893   2.439264   1.390660
    26  C    4.179733   3.739569   2.416767   2.826955   2.426726
    27  C    2.802039   2.467046   1.406138   2.453403   2.799401
    28  C    7.025191   7.419873   8.862067   9.533228  10.949346
    29  H    4.528162   3.437033   3.940788   3.493849   4.725544
    30  H    4.532824   4.715335   6.144977   6.761431   8.181212
    31  H    7.386778   8.229302   9.660038  10.663108  12.010682
    32  H    6.211161   7.217722   8.576286   9.709856  10.986240
    33  H    7.825948   8.862216  10.196843  11.349669  12.600314
    34  H    7.506076   8.362347   9.745549  10.762535  12.065127
    35  H    6.329633   7.349227   8.651053   9.799929  11.025117
    36  H    7.378089   7.944530   9.403295  10.197954  11.595122
    37  H    6.195884   6.561418   8.000689   8.673311  10.078948
    38  H    4.527331   5.675876   6.939197   8.178964   9.372261
    39  H    2.638724   3.944668   4.935382   6.298567   7.327600
    40  H    6.072121   5.329860   3.865754   3.419074   2.144774
    41  H    4.821389   4.607481   3.402035   3.910012   3.401874
    42  H    2.433324   2.644284   2.145983   3.422535   3.880800
    43  H    7.845957   8.120309   9.543561  10.100695  11.522176
    44  H    7.551777   8.061124   9.497952  10.246543  11.647107
    45  H    6.372885   6.670593   8.080104   8.697667  10.106417
                   21         22         23         24         25
    21  C    0.000000
    22  F    1.352087   0.000000
    23  F    1.352674   2.193415   0.000000
    24  F    1.364971   2.152652   2.153395   0.000000
    25  C    2.466590   3.445267   3.380494   2.621469   0.000000
    26  C    3.777463   4.654917   4.614925   4.012501   1.396999
    27  C    4.315729   5.027253   5.051207   4.907777   2.400933
    28  C   11.943453  11.953729  11.990245  13.215361  11.632163
    29  H    5.177071   4.960393   5.164857   6.534361   5.925311
    30  H    9.173487   9.122562   9.356537  10.432924   8.906065
    31  H   13.237345  13.364160  13.486397  14.379458  12.387916
    32  H   12.308776  12.560555  12.611940  13.368485  11.210362
    33  H   13.926725  14.033702  14.391518  14.946961  12.776712
    34  H   13.290340  13.244114  13.761451  14.374687  12.397989
    35  H   12.346723  12.413169  12.890679  13.342325  11.197901
    36  H   12.666280  12.572706  12.927683  13.882769  12.175464
    37  H   11.074591  10.920250  11.330381  12.316688  10.757878
    38  H   10.763977  11.047185  11.207992  11.733743   9.467296
    39  H    8.796877   9.221840   9.333439   9.635232   7.229826
    40  H    2.626696   3.641104   3.524231   2.197051   1.080002
    41  H    4.616726   5.524975   5.456488   4.592152   2.150275
    42  H    5.397044   6.080118   6.110598   5.953406   3.388847
    43  H   12.422304  12.343973  12.429676  13.726228  12.294692
    44  H   12.694243  12.786426  12.717336  13.943937  12.257854
    45  H   11.074139  11.137024  11.053353  12.353907  10.819723
                   26         27         28         29         30
    26  C    0.000000
    27  C    1.377754   0.000000
    28  C   11.082099   9.732715   0.000000
    29  H    6.187923   5.346236   7.222933   0.000000
    30  H    8.444072   7.121932   2.935692   4.601420   0.000000
    31  H   11.537745  10.166350   3.016031   9.144395   4.623167
    32  H   10.249542   8.902888   3.935052   8.729020   4.583383
    33  H   11.775087  10.454365   5.275421  10.358671   6.067317
    34  H   11.534995  10.195484   4.443329   9.398752   5.061610
    35  H   10.220820   8.911095   5.130414   8.986562   5.024170
    36  H   11.518112  10.150944   2.163589   8.137247   3.599023
    37  H   10.222217   8.880975   2.175923   6.452097   2.070410
    38  H    8.431089   7.109355   5.021349   7.780753   4.353068
    39  H    6.098141   4.832925   6.634280   6.844551   4.967047
    40  H    2.140404   3.371846  12.709445   6.853940   9.981202
    41  H    1.083127   2.141318  11.810570   7.249447   9.246460
    42  H    2.144063   1.081530   9.427737   5.917987   6.957066
    43  H   11.832774  10.501795   1.093004   7.499829   3.485715
    44  H   11.632731  10.277407   1.092860   8.109410   3.836084
    45  H   10.321097   8.995326   1.092229   6.383490   2.429495
                   31         32         33         34         35
    31  H    0.000000
    32  H    1.742607   0.000000
    33  H    2.493006   2.502242   0.000000
    34  H    2.513347   3.081211   1.771187   0.000000
    35  H    3.076043   2.543970   1.772482   1.769810   0.000000
    36  H    2.301462   3.535195   3.801686   2.538028   3.706418
    37  H    3.534366   4.167577   4.932143   3.584072   4.213879
    38  H    3.579187   2.054240   3.486277   3.821732   2.424223
    39  H    5.906548   4.391195   5.828056   6.002720   4.489888
    40  H   13.449335  12.246001  13.792271  13.435467  12.206579
    41  H   12.044114  10.661048  12.122929  12.007799  10.592537
    42  H    9.563226   8.198939   9.700268   9.578358   8.189571
    43  H    3.810896   4.941333   6.009200   5.000775   5.927957
    44  H    2.546278   3.598706   5.004514   4.495063   5.187465
    45  H    3.706668   4.217586   5.925583   5.180480   5.573385
                   36         37         38         39         40
    36  H    0.000000
    37  H    1.743553   0.000000
    38  H    4.603083   4.560534   0.000000
    39  H    6.567956   5.969434   2.437423   0.000000
    40  H   13.250142  11.829770  10.477125   8.194953   0.000000
    41  H   12.171389  10.961559   8.782674   6.373908   2.457233
    42  H    9.734343   8.600664   6.336906   3.966978   4.272985
    43  H    2.495736   2.499754   6.047338   7.631925  13.367397
    44  H    2.511140   3.081447   5.050695   6.860743  13.332024
    45  H    3.077206   2.547258   5.002618   6.270438  11.890252
                   41         42         43         44         45
    41  H    0.000000
    42  H    2.482085   0.000000
    43  H   12.610205  10.268641   0.000000
    44  H   12.304340   9.894698   1.771057   0.000000
    45  H   11.080006   8.753594   1.772039   1.769861   0.000000
 Symmetry turned off by external request.
 Stoichiometry    C21H17F3N2O2
 Framework group  C1[X(C21H17F3N2O2)]
 Deg. of freedom   129
 Full point group                 C1      NOp   1
 Rotational constants (GHZ):      0.5538909      0.0670473      0.0611598
 Leave Link  202 at Wed Jan 15 17:15:34 2020, MaxMem=  6710886400 cpu:         0.2
 (Enter /opt/sys/apps/gaussian09/D.01/g09/l301.exe)
 Standard basis: 6-311++G(d,p) (5D, 7F)
 Ernie: Thresh=  0.10000D-02 Tol=  0.10000D-05 Strict=F.
   735 basis functions,  1161 primitive gaussians,   763 cartesian basis functions
   100 alpha electrons      100 beta electrons
       nuclear repulsion energy      2505.3700900471 Hartrees.
 IExCor=20419 DFT=T Ex+Corr=CAM-B3LYP ExCW=0 ScaHFX=  1.000000
 ScaDFX=  1.000000  1.000000  1.000000  0.810000 ScalE2=  1.000000  1.000000
 IRadAn=      0 IRanWt=     -1 IRanGd=            0 ICorTp=0 IEmpDi=131
  HFx wShort=  0.000000 wLong=  0.330000 cFull=  0.190000 cShort=  0.000000 cLong=  0.810000
  DFx wShort=  0.000000 wLong=  0.330000 cFull=  0.190000 cShort=  0.000000 cLong=  0.810000
 NAtoms=   45 NActive=   45 NUniq=   45 SFac= 1.00D+00 NAtFMM=   60 NAOKFM=F Big=F
 Integral buffers will be    131072 words long.
 Raffenetti 1 integral format.
 Two-electron integral symmetry is turned off.
 R6Disp:  Grimme-D3 Dispersion energy=       -0.0318297730 Hartrees.
 Nuclear repulsion after empirical dispersion term =     2505.3382602740 Hartrees.
 ------------------------------------------------------------------------------
 Polarizable Continuum Model (PCM)
 =================================
 Model                : C-PCM.
 Atomic radii         : UFF (Universal Force Field).
 Polarization charges : Total charges.
 Charge compensation  : None.
 Solution method      : On-the-fly selection.
 Cavity type          : Scaled VdW (van der Waals Surface) (Alpha=1.100).
 Cavity algorithm     : GePol (No added spheres)
                        Default sphere list used, NSphG=   45.
                        Lebedev-Laikov grids with approx.  5.0 points / Ang**2.
                        Smoothing algorithm: Karplus/York (Gamma=1.0000).
                        Polarization charges: spherical gaussians, with
                                              point-specific exponents (IZeta= 3).
                        Self-potential: point-specific (ISelfS= 7).
                        Self-field    : sphere-specific E.n sum rule (ISelfD= 2).
 1st derivatives      : Analytical E(r).r(x)/FMM algorithm (CHGder, D1EAlg=3).
                        Cavity 1st derivative terms included.
 Solvent              : Water, Eps=  78.355300 Eps(inf)=   1.777849
 ------------------------------------------------------------------------------
 GePol: Number of generator spheres                  =      45
 GePol: Total number of spheres                      =      45
 GePol: Number of exposed spheres                    =      45 (100.00%)
 GePol: Number of points                             =    3346
 GePol: Average weight of points                     =       0.13
 GePol: Minimum weight of points                     =   0.13D-09
 GePol: Maximum weight of points                     =    0.20577
 GePol: Number of points with low weight             =     205
 GePol: Fraction of low-weight points (<1% of avg)   =       6.13%
 GePol: Cavity surface area                          =    424.384 Ang**2
 GePol: Cavity volume                                =    478.733 Ang**3
 Leave Link  301 at Wed Jan 15 17:15:34 2020, MaxMem=  6710886400 cpu:         1.3
 (Enter /opt/sys/apps/gaussian09/D.01/g09/l302.exe)
 NPDir=0 NMtPBC=     1 NCelOv=     1 NCel=       1 NClECP=     1 NCelD=      1
         NCelK=      1 NCelE2=     1 NClLst=     1 CellRange=     0.0.
 One-electron integrals computed using PRISM.
 NBasis=   735 RedAO= T EigKep=  1.09D-06  NBF=   735
 NBsUse=   726 1.00D-06 EigRej=  6.25D-07 NBFU=   726
 Precomputing XC quadrature grid using
 IXCGrd= 4 IRadAn=           0 IRanWt=          -1 IRanGd=           0 AccXCQ= 0.00D+00.
 Generated NRdTot=       0 NPtTot=           0 NUsed=           0 NTot=          32
 NSgBfM=   715   716   717   717   717 MxSgAt=    45 MxSgA2=    45.
 Leave Link  302 at Wed Jan 15 17:15:35 2020, MaxMem=  6710886400 cpu:        27.9
 (Enter /opt/sys/apps/gaussian09/D.01/g09/l308.exe)
 Leave Link  308 at Wed Jan 15 17:15:36 2020, MaxMem=  6710886400 cpu:         2.9
 (Enter /opt/sys/apps/gaussian09/D.01/g09/l303.exe)
 DipDrv:  MaxL=1.
 Leave Link  303 at Wed Jan 15 17:15:36 2020, MaxMem=  6710886400 cpu:         2.1
 (Enter /opt/sys/apps/gaussian09/D.01/g09/l401.exe)
 ExpMin= 3.60D-02 ExpMax= 1.14D+04 ExpMxC= 1.72D+03 IAcc=3 IRadAn=         5 AccDes= 0.00D+00
 Harris functional with IExCor=20419 and IRadAn=       5 diagonalized for initial guess.
 HarFok:  IExCor=20419 AccDes= 0.00D+00 IRadAn=         5 IDoV= 1 UseB2=F ITyADJ=14
 ICtDFT=  3500011 ScaDFX=  1.000000  1.000000  1.000000  1.000000
 FoFCou: FMM=F IPFlag=           0 FMFlag=      100000 FMFlg1=           0
         NFxFlg=           0 DoJE=T BraDBF=F KetDBF=T FulRan=T
         wScrn=  0.000000 ICntrl=     500 IOpCl=  0 I1Cent=   200000004 NGrid=           0
         NMat0=    1 NMatS0=      1 NMatT0=    0 NMatD0=    1 NMtDS0=    0 NMtDT0=    0
 Symmetry not used in FoFCou.
 Harris En= -1307.43994943278    
 JPrj=0 DoOrth=F DoCkMO=F.
 Leave Link  401 at Wed Jan 15 17:15:40 2020, MaxMem=  6710886400 cpu:        86.4
 (Enter /opt/sys/apps/gaussian09/D.01/g09/l502.exe)
 Closed shell SCF:
 Using DIIS extrapolation, IDIIS=  1040.
 Two-electron integral symmetry not used.
 IVT=     1788037 IEndB=     1788037 NGot=  6710886400 MDV=  6709697936
 LenX=  6709697936 LenY=  6709115004
 Requested convergence on RMS density matrix=1.00D-08 within 128 cycles.
 Requested convergence on MAX density matrix=1.00D-06.
 Requested convergence on             energy=1.00D-06.
 No special actions if energy rises.
 Fock matrices will be formed incrementally for  20 cycles.

 Cycle   1  Pass 1  IDiag  1:
 FoFJK:  IHMeth= 1 ICntrl=       0 DoSepK=T KAlg= 0 I1Cent=   0 FoldK=F
 IRaf=         1 NMat=   1 IRICut=       1 DoRegI=T DoRafI=F ISym2E= 0.
 FoFCou: FMM=F IPFlag=           0 FMFlag=      100000 FMFlg1=           0
         NFxFlg=           0 DoJE=T BraDBF=F KetDBF=F FulRan=T
         wScrn=  0.000000 ICntrl=     500 IOpCl=  0 I1Cent=           0 NGrid=           0
         NMat0=    1 NMatS0=      1 NMatT0=    0 NMatD0=    1 NMtDS0=    0 NMtDT0=    0
 Symmetry not used in FoFCou.
 Inv3:  Mode=1 IEnd=    33587148.
 Iteration    1 A*A^-1 deviation from unit magnitude is 1.52D-14 for   3338.
 Iteration    1 A*A^-1 deviation from orthogonality  is 6.33D-15 for   3338   2749.
 Iteration    1 A^-1*A deviation from unit magnitude is 1.52D-14 for   3338.
 Iteration    1 A^-1*A deviation from orthogonality  is 1.77D-15 for   1652    798.
 E= -1368.09966297257    
 DIIS: error= 5.32D-02 at cycle   1 NSaved=   1.
 NSaved= 1 IEnMin= 1 EnMin= -1368.09966297257     IErMin= 1 ErrMin= 5.32D-02
 ErrMax= 5.32D-02  0.00D+00 EMaxC= 1.00D-01 BMatC= 2.73D+00 BMatP= 2.73D+00
 IDIUse=3 WtCom= 4.68D-01 WtEn= 5.32D-01
 Coeff-Com:  0.100D+01
 Coeff-En:   0.100D+01
 Coeff:      0.100D+01
 Gap=     0.266 Goal=   None    Shift=    0.000
 GapD=    0.266 DampG=1.000 DampE=0.500 DampFc=0.5000 IDamp=-1.
 Damping current iteration by 5.00D-01
 RMSDP=1.29D-02 MaxDP=8.82D-01              OVMax= 1.86D-01

 Cycle   2  Pass 1  IDiag  1:
 RMSU=  6.03D-03    CP:  9.54D-01
 E= -1368.45473598067     Delta-E=       -0.355073008100 Rises=F Damp=T
 DIIS: error= 2.33D-02 at cycle   2 NSaved=   2.
 NSaved= 2 IEnMin= 2 EnMin= -1368.45473598067     IErMin= 2 ErrMin= 2.33D-02
 ErrMax= 2.33D-02  0.00D+00 EMaxC= 1.00D-01 BMatC= 4.62D-01 BMatP= 2.73D+00
 IDIUse=3 WtCom= 7.67D-01 WtEn= 2.33D-01
 Coeff-Com: -0.386D+00 0.139D+01
 Coeff-En:   0.000D+00 0.100D+01
 Coeff:     -0.296D+00 0.130D+01
 Gap=     0.242 Goal=   None    Shift=    0.000
 RMSDP=7.14D-03 MaxDP=4.41D-01 DE=-3.55D-01 OVMax= 1.59D-01

 Cycle   3  Pass 1  IDiag  1:
 RMSU=  4.68D-03    CP:  8.61D-01  1.48D+00
 E= -1368.75547860922     Delta-E=       -0.300742628549 Rises=F Damp=F
 DIIS: error= 8.55D-03 at cycle   3 NSaved=   3.
 NSaved= 3 IEnMin= 3 EnMin= -1368.75547860922     IErMin= 3 ErrMin= 8.55D-03
 ErrMax= 8.55D-03  0.00D+00 EMaxC= 1.00D-01 BMatC= 8.25D-02 BMatP= 4.62D-01
 IDIUse=3 WtCom= 9.14D-01 WtEn= 8.55D-02
 Coeff-Com: -0.222D+00 0.512D+00 0.710D+00
 Coeff-En:   0.000D+00 0.000D+00 0.100D+01
 Coeff:     -0.203D+00 0.468D+00 0.735D+00
 Gap=     0.231 Goal=   None    Shift=    0.000
 RMSDP=3.34D-03 MaxDP=3.51D-01 DE=-3.01D-01 OVMax= 5.52D-02

 Cycle   4  Pass 1  IDiag  1:
 RMSU=  1.74D-03    CP:  8.09D-01  1.66D+00  8.60D-01
 E= -1368.80717972887     Delta-E=       -0.051701119651 Rises=F Damp=F
 DIIS: error= 2.60D-03 at cycle   4 NSaved=   4.
 NSaved= 4 IEnMin= 4 EnMin= -1368.80717972887     IErMin= 4 ErrMin= 2.60D-03
 ErrMax= 2.60D-03  0.00D+00 EMaxC= 1.00D-01 BMatC= 7.91D-03 BMatP= 8.25D-02
 IDIUse=3 WtCom= 9.74D-01 WtEn= 2.60D-02
 Coeff-Com: -0.758D-01 0.165D+00 0.350D+00 0.561D+00
 Coeff-En:   0.000D+00 0.000D+00 0.000D+00 0.100D+01
 Coeff:     -0.739D-01 0.160D+00 0.341D+00 0.572D+00
 Gap=     0.230 Goal=   None    Shift=    0.000
 RMSDP=6.38D-04 MaxDP=3.83D-02 DE=-5.17D-02 OVMax= 1.19D-02

 Cycle   5  Pass 1  IDiag  1:
 RMSU=  5.17D-04    CP:  8.08D-01  1.69D+00  8.96D-01  8.33D-01
 E= -1368.81273824574     Delta-E=       -0.005558516871 Rises=F Damp=F
 DIIS: error= 5.04D-04 at cycle   5 NSaved=   5.
 NSaved= 5 IEnMin= 5 EnMin= -1368.81273824574     IErMin= 5 ErrMin= 5.04D-04
 ErrMax= 5.04D-04  0.00D+00 EMaxC= 1.00D-01 BMatC= 1.77D-04 BMatP= 7.91D-03
 IDIUse=3 WtCom= 9.95D-01 WtEn= 5.04D-03
 Coeff-Com: -0.104D-02 0.844D-04 0.372D-01 0.124D+00 0.840D+00
 Coeff-En:   0.000D+00 0.000D+00 0.000D+00 0.000D+00 0.100D+01
 Coeff:     -0.103D-02 0.839D-04 0.370D-01 0.123D+00 0.841D+00
 Gap=     0.232 Goal=   None    Shift=    0.000
 RMSDP=4.48D-04 MaxDP=4.09D-02 DE=-5.56D-03 OVMax= 1.13D-02

 Cycle   6  Pass 1  IDiag  1:
 RMSU=  1.80D-04    CP:  8.00D-01  1.69D+00  9.06D-01  8.91D-01  1.21D+00
 E= -1368.81309121069     Delta-E=       -0.000352964949 Rises=F Damp=F
 DIIS: error= 3.68D-04 at cycle   6 NSaved=   6.
 NSaved= 6 IEnMin= 6 EnMin= -1368.81309121069     IErMin= 6 ErrMin= 3.68D-04
 ErrMax= 3.68D-04  0.00D+00 EMaxC= 1.00D-01 BMatC= 5.41D-05 BMatP= 1.77D-04
 IDIUse=3 WtCom= 9.96D-01 WtEn= 3.68D-03
 Coeff-Com:  0.140D-01-0.308D-01-0.521D-01-0.771D-01 0.309D+00 0.837D+00
 Coeff-En:   0.000D+00 0.000D+00 0.000D+00 0.000D+00 0.000D+00 0.100D+01
 Coeff:      0.139D-01-0.307D-01-0.519D-01-0.768D-01 0.308D+00 0.838D+00
 Gap=     0.233 Goal=   None    Shift=    0.000
 RMSDP=2.49D-04 MaxDP=2.56D-02 DE=-3.53D-04 OVMax= 9.81D-03

 Cycle   7  Pass 1  IDiag  1:
 RMSU=  6.51D-05    CP:  7.97D-01  1.70D+00  9.11D-01  9.39D-01  1.41D+00
                    CP:  1.09D+00
 E= -1368.81324135272     Delta-E=       -0.000150142027 Rises=F Damp=F
 DIIS: error= 2.29D-04 at cycle   7 NSaved=   7.
 NSaved= 7 IEnMin= 7 EnMin= -1368.81324135272     IErMin= 7 ErrMin= 2.29D-04
 ErrMax= 2.29D-04  0.00D+00 EMaxC= 1.00D-01 BMatC= 9.50D-06 BMatP= 5.41D-05
 IDIUse=3 WtCom= 9.98D-01 WtEn= 2.29D-03
 Coeff-Com:  0.351D-02-0.740D-02-0.172D-01-0.392D-01-0.365D-01 0.232D+00
 Coeff-Com:  0.865D+00
 Coeff-En:   0.000D+00 0.000D+00 0.000D+00 0.000D+00 0.000D+00 0.000D+00
 Coeff-En:   0.100D+01
 Coeff:      0.350D-02-0.738D-02-0.172D-01-0.391D-01-0.364D-01 0.231D+00
 Coeff:      0.865D+00
 Gap=     0.234 Goal=   None    Shift=    0.000
 RMSDP=7.12D-05 MaxDP=6.94D-03 DE=-1.50D-04 OVMax= 6.35D-03

 Cycle   8  Pass 1  IDiag  1:
 RMSU=  3.10D-05    CP:  7.96D-01  1.71D+00  9.12D-01  9.50D-01  1.49D+00
                    CP:  1.26D+00  1.34D+00
 E= -1368.81328921451     Delta-E=       -0.000047861790 Rises=F Damp=F
 DIIS: error= 1.51D-04 at cycle   8 NSaved=   8.
 NSaved= 8 IEnMin= 8 EnMin= -1368.81328921451     IErMin= 8 ErrMin= 1.51D-04
 ErrMax= 1.51D-04  0.00D+00 EMaxC= 1.00D-01 BMatC= 3.29D-06 BMatP= 9.50D-06
 IDIUse=3 WtCom= 9.98D-01 WtEn= 1.51D-03
 Coeff-Com: -0.412D-02 0.921D-02 0.149D-01 0.142D-01-0.123D+00-0.217D+00
 Coeff-Com:  0.276D+00 0.103D+01
 Coeff-En:   0.000D+00 0.000D+00 0.000D+00 0.000D+00 0.000D+00 0.000D+00
 Coeff-En:   0.000D+00 0.100D+01
 Coeff:     -0.411D-02 0.919D-02 0.149D-01 0.141D-01-0.123D+00-0.216D+00
 Coeff:      0.276D+00 0.103D+01
 Gap=     0.234 Goal=   None    Shift=    0.000
 RMSDP=5.80D-05 MaxDP=6.29D-03 DE=-4.79D-05 OVMax= 6.16D-03

 Cycle   9  Pass 1  IDiag  1:
 RMSU=  2.37D-05    CP:  7.97D-01  1.71D+00  9.13D-01  9.52D-01  1.53D+00
                    CP:  1.38D+00  1.79D+00  1.68D+00
 E= -1368.81331540490     Delta-E=       -0.000026190394 Rises=F Damp=F
 DIIS: error= 7.32D-05 at cycle   9 NSaved=   9.
 NSaved= 9 IEnMin= 9 EnMin= -1368.81331540490     IErMin= 9 ErrMin= 7.32D-05
 ErrMax= 7.32D-05  0.00D+00 EMaxC= 1.00D-01 BMatC= 1.15D-06 BMatP= 3.29D-06
 IDIUse=1 WtCom= 1.00D+00 WtEn= 0.00D+00
 Coeff-Com: -0.232D-02 0.504D-02 0.104D-01 0.149D-01-0.292D-01-0.142D+00
 Coeff-Com: -0.189D+00 0.357D+00 0.974D+00
 Coeff:     -0.232D-02 0.504D-02 0.104D-01 0.149D-01-0.292D-01-0.142D+00
 Coeff:     -0.189D+00 0.357D+00 0.974D+00
 Gap=     0.234 Goal=   None    Shift=    0.000
 RMSDP=3.44D-05 MaxDP=3.77D-03 DE=-2.62D-05 OVMax= 3.82D-03

 Cycle  10  Pass 1  IDiag  1:
 RMSU=  8.15D-06    CP:  7.97D-01  1.71D+00  9.13D-01  9.55D-01  1.56D+00
                    CP:  1.42D+00  2.05D+00  2.20D+00  1.53D+00
 E= -1368.81332327636     Delta-E=       -0.000007871459 Rises=F Damp=F
 DIIS: error= 3.33D-05 at cycle  10 NSaved=  10.
 NSaved=10 IEnMin=10 EnMin= -1368.81332327636     IErMin=10 ErrMin= 3.33D-05
 ErrMax= 3.33D-05  0.00D+00 EMaxC= 1.00D-01 BMatC= 2.28D-07 BMatP= 1.15D-06
 IDIUse=1 WtCom= 1.00D+00 WtEn= 0.00D+00
 Coeff-Com:  0.727D-03-0.164D-02-0.172D-02-0.107D-02 0.302D-01 0.254D-01
 Coeff-Com: -0.145D+00-0.182D+00 0.306D+00 0.969D+00
 Coeff:      0.727D-03-0.164D-02-0.172D-02-0.107D-02 0.302D-01 0.254D-01
 Coeff:     -0.145D+00-0.182D+00 0.306D+00 0.969D+00
 Gap=     0.234 Goal=   None    Shift=    0.000
 RMSDP=1.68D-05 MaxDP=1.37D-03 DE=-7.87D-06 OVMax= 1.83D-03

 Cycle  11  Pass 1  IDiag  1:
 RMSU=  5.46D-06    CP:  7.97D-01  1.71D+00  9.14D-01  9.55D-01  1.57D+00
                    CP:  1.44D+00  2.16D+00  2.43D+00  1.89D+00  1.35D+00
 E= -1368.81332485658     Delta-E=       -0.000001580213 Rises=F Damp=F
 DIIS: error= 1.08D-05 at cycle  11 NSaved=  11.
 NSaved=11 IEnMin=11 EnMin= -1368.81332485658     IErMin=11 ErrMin= 1.08D-05
 ErrMax= 1.08D-05  0.00D+00 EMaxC= 1.00D-01 BMatC= 3.96D-08 BMatP= 2.28D-07
 IDIUse=1 WtCom= 1.00D+00 WtEn= 0.00D+00
 Coeff-Com:  0.500D-03-0.109D-02-0.200D-02-0.288D-02 0.990D-02 0.301D-01
 Coeff-Com:  0.149D-01-0.101D+00-0.148D+00 0.185D+00 0.101D+01
 Coeff:      0.500D-03-0.109D-02-0.200D-02-0.288D-02 0.990D-02 0.301D-01
 Coeff:      0.149D-01-0.101D+00-0.148D+00 0.185D+00 0.101D+01
 Gap=     0.234 Goal=   None    Shift=    0.000
 RMSDP=7.38D-06 MaxDP=4.94D-04 DE=-1.58D-06 OVMax= 6.54D-04

 Cycle  12  Pass 1  IDiag  1:
 RMSU=  2.07D-06    CP:  7.97D-01  1.71D+00  9.14D-01  9.56D-01  1.58D+00
                    CP:  1.45D+00  2.20D+00  2.48D+00  2.05D+00  1.43D+00
                    CP:  1.50D+00
 E= -1368.81332508725     Delta-E=       -0.000000230672 Rises=F Damp=F
 DIIS: error= 4.42D-06 at cycle  12 NSaved=  12.
 NSaved=12 IEnMin=12 EnMin= -1368.81332508725     IErMin=12 ErrMin= 4.42D-06
 ErrMax= 4.42D-06  0.00D+00 EMaxC= 1.00D-01 BMatC= 9.70D-09 BMatP= 3.96D-08
 IDIUse=1 WtCom= 1.00D+00 WtEn= 0.00D+00
 Coeff-Com: -0.120D-04 0.385D-04-0.185D-03-0.658D-03-0.351D-02 0.419D-02
 Coeff-Com:  0.400D-01 0.263D-02-0.124D+00-0.148D+00 0.389D+00 0.841D+00
 Coeff:     -0.120D-04 0.385D-04-0.185D-03-0.658D-03-0.351D-02 0.419D-02
 Coeff:      0.400D-01 0.263D-02-0.124D+00-0.148D+00 0.389D+00 0.841D+00
 Gap=     0.234 Goal=   None    Shift=    0.000
 RMSDP=2.48D-06 MaxDP=1.69D-04 DE=-2.31D-07 OVMax= 2.03D-04

 Cycle  13  Pass 1  IDiag  1:
 RMSU=  9.33D-07    CP:  7.97D-01  1.71D+00  9.14D-01  9.56D-01  1.58D+00
                    CP:  1.45D+00  2.21D+00  2.49D+00  2.10D+00  1.51D+00
                    CP:  1.65D+00  1.20D+00
 E= -1368.81332511948     Delta-E=       -0.000000032231 Rises=F Damp=F
 DIIS: error= 1.21D-06 at cycle  13 NSaved=  13.
 NSaved=13 IEnMin=13 EnMin= -1368.81332511948     IErMin=13 ErrMin= 1.21D-06
 ErrMax= 1.21D-06  0.00D+00 EMaxC= 1.00D-01 BMatC= 8.66D-10 BMatP= 9.70D-09
 IDIUse=1 WtCom= 1.00D+00 WtEn= 0.00D+00
 Coeff-Com: -0.556D-04 0.123D-03 0.199D-03 0.147D-03-0.183D-02-0.264D-02
 Coeff-Com:  0.752D-02 0.121D-01-0.102D-01-0.524D-01-0.360D-01 0.164D+00
 Coeff-Com:  0.919D+00
 Coeff:     -0.556D-04 0.123D-03 0.199D-03 0.147D-03-0.183D-02-0.264D-02
 Coeff:      0.752D-02 0.121D-01-0.102D-01-0.524D-01-0.360D-01 0.164D+00
 Coeff:      0.919D+00
 Gap=     0.234 Goal=   None    Shift=    0.000
 RMSDP=6.43D-07 MaxDP=3.81D-05 DE=-3.22D-08 OVMax= 4.62D-05

 Cycle  14  Pass 1  IDiag  1:
 RMSU=  3.40D-07    CP:  7.97D-01  1.71D+00  9.14D-01  9.56D-01  1.58D+00
                    CP:  1.45D+00  2.21D+00  2.49D+00  2.10D+00  1.50D+00
                    CP:  1.70D+00  1.30D+00  1.24D+00
 E= -1368.81332512247     Delta-E=       -0.000000002991 Rises=F Damp=F
 DIIS: error= 6.05D-07 at cycle  14 NSaved=  14.
 NSaved=14 IEnMin=14 EnMin= -1368.81332512247     IErMin=14 ErrMin= 6.05D-07
 ErrMax= 6.05D-07  0.00D+00 EMaxC= 1.00D-01 BMatC= 1.93D-10 BMatP= 8.66D-10
 IDIUse=1 WtCom= 1.00D+00 WtEn= 0.00D+00
 Coeff-Com: -0.716D-05 0.146D-04 0.639D-04 0.988D-04 0.100D-03-0.131D-02
 Coeff-Com: -0.450D-02 0.240D-02 0.173D-01 0.119D-01-0.707D-01-0.105D+00
 Coeff-Com:  0.276D+00 0.873D+00
 Coeff:     -0.716D-05 0.146D-04 0.639D-04 0.988D-04 0.100D-03-0.131D-02
 Coeff:     -0.450D-02 0.240D-02 0.173D-01 0.119D-01-0.707D-01-0.105D+00
 Coeff:      0.276D+00 0.873D+00
 Gap=     0.234 Goal=   None    Shift=    0.000
 RMSDP=2.83D-07 MaxDP=1.96D-05 DE=-2.99D-09 OVMax= 1.38D-05

 Cycle  15  Pass 1  IDiag  1:
 RMSU=  1.51D-07    CP:  7.97D-01  1.71D+00  9.14D-01  9.56D-01  1.58D+00
                    CP:  1.45D+00  2.21D+00  2.49D+00  2.10D+00  1.49D+00
                    CP:  1.71D+00  1.33D+00  1.35D+00  1.31D+00
 E= -1368.81332512301     Delta-E=       -0.000000000538 Rises=F Damp=F
 DIIS: error= 3.04D-07 at cycle  15 NSaved=  15.
 NSaved=15 IEnMin=15 EnMin= -1368.81332512301     IErMin=15 ErrMin= 3.04D-07
 ErrMax= 3.04D-07  0.00D+00 EMaxC= 1.00D-01 BMatC= 3.06D-11 BMatP= 1.93D-10
 IDIUse=1 WtCom= 1.00D+00 WtEn= 0.00D+00
 Coeff-Com:  0.607D-05-0.137D-04-0.116D-04 0.988D-05 0.329D-03 0.245D-04
 Coeff-Com: -0.233D-02-0.115D-02 0.665D-02 0.110D-01-0.145D-01-0.630D-01
 Coeff-Com: -0.576D-01 0.222D+00 0.899D+00
 Coeff:      0.607D-05-0.137D-04-0.116D-04 0.988D-05 0.329D-03 0.245D-04
 Coeff:     -0.233D-02-0.115D-02 0.665D-02 0.110D-01-0.145D-01-0.630D-01
 Coeff:     -0.576D-01 0.222D+00 0.899D+00
 Gap=     0.234 Goal=   None    Shift=    0.000
 RMSDP=1.32D-07 MaxDP=1.52D-05 DE=-5.38D-10 OVMax= 6.09D-06

 Cycle  16  Pass 1  IDiag  1:
 RMSU=  5.90D-08    CP:  7.97D-01  1.71D+00  9.14D-01  9.56D-01  1.58D+00
                    CP:  1.45D+00  2.21D+00  2.49D+00  2.10D+00  1.49D+00
                    CP:  1.71D+00  1.34D+00  1.39D+00  1.40D+00  1.25D+00
 E= -1368.81332512316     Delta-E=       -0.000000000158 Rises=F Damp=F
 DIIS: error= 1.20D-07 at cycle  16 NSaved=  16.
 NSaved=16 IEnMin=16 EnMin= -1368.81332512316     IErMin=16 ErrMin= 1.20D-07
 ErrMax= 1.20D-07  0.00D+00 EMaxC= 1.00D-01 BMatC= 7.89D-12 BMatP= 3.06D-11
 IDIUse=1 WtCom= 1.00D+00 WtEn= 0.00D+00
 Coeff-Com:  0.196D-05-0.423D-05-0.136D-04-0.122D-04 0.605D-04 0.248D-03
 Coeff-Com:  0.318D-03-0.888D-03-0.179D-02 0.466D-03 0.124D-01 0.241D-02
 Coeff-Com: -0.664D-01-0.143D+00 0.274D+00 0.922D+00
 Coeff:      0.196D-05-0.423D-05-0.136D-04-0.122D-04 0.605D-04 0.248D-03
 Coeff:      0.318D-03-0.888D-03-0.179D-02 0.466D-03 0.124D-01 0.241D-02
 Coeff:     -0.664D-01-0.143D+00 0.274D+00 0.922D+00
 Gap=     0.234 Goal=   None    Shift=    0.000
 RMSDP=7.29D-08 MaxDP=7.39D-06 DE=-1.58D-10 OVMax= 2.94D-06

 Cycle  17  Pass 1  IDiag  1:
 RMSU=  2.73D-08    CP:  7.97D-01  1.71D+00  9.14D-01  9.56D-01  1.58D+00
                    CP:  1.45D+00  2.21D+00  2.49D+00  2.10D+00  1.49D+00
                    CP:  1.71D+00  1.34D+00  1.39D+00  1.44D+00  1.44D+00
                    CP:  1.23D+00
 E= -1368.81332512315     Delta-E=        0.000000000014 Rises=F Damp=F
 DIIS: error= 5.57D-08 at cycle  17 NSaved=  17.
 NSaved=17 IEnMin=16 EnMin= -1368.81332512316     IErMin=17 ErrMin= 5.57D-08
 ErrMax= 5.57D-08  0.00D+00 EMaxC= 1.00D-01 BMatC= 1.05D-12 BMatP= 7.89D-12
 IDIUse=1 WtCom= 1.00D+00 WtEn= 0.00D+00
 Coeff-Com: -0.647D-06 0.148D-05-0.652D-06-0.368D-05-0.479D-04 0.500D-04
 Coeff-Com:  0.481D-03 0.616D-04-0.156D-02-0.212D-02 0.514D-02 0.111D-01
 Coeff-Com:  0.364D-02-0.724D-01-0.112D+00 0.161D+00 0.101D+01
 Coeff:     -0.647D-06 0.148D-05-0.652D-06-0.368D-05-0.479D-04 0.500D-04
 Coeff:      0.481D-03 0.616D-04-0.156D-02-0.212D-02 0.514D-02 0.111D-01
 Coeff:      0.364D-02-0.724D-01-0.112D+00 0.161D+00 0.101D+01
 Gap=     0.234 Goal=   None    Shift=    0.000
 RMSDP=2.46D-08 MaxDP=1.92D-06 DE= 1.41D-11 OVMax= 1.27D-06

 Cycle  18  Pass 1  IDiag  1:
 RMSU=  8.94D-09    CP:  7.97D-01  1.71D+00  9.14D-01  9.56D-01  1.58D+00
                    CP:  1.45D+00  2.21D+00  2.49D+00  2.10D+00  1.49D+00
                    CP:  1.71D+00  1.33D+00  1.38D+00  1.44D+00  1.50D+00
                    CP:  1.33D+00  1.35D+00
 E= -1368.81332512343     Delta-E=       -0.000000000276 Rises=F Damp=F
 DIIS: error= 2.03D-08 at cycle  18 NSaved=  18.
 NSaved=18 IEnMin=18 EnMin= -1368.81332512343     IErMin=18 ErrMin= 2.03D-08
 ErrMax= 2.03D-08  0.00D+00 EMaxC= 1.00D-01 BMatC= 1.73D-13 BMatP= 1.05D-12
 IDIUse=1 WtCom= 1.00D+00 WtEn= 0.00D+00
 Coeff-Com: -0.325D-06 0.717D-06 0.138D-05 0.133D-06-0.223D-04-0.197D-04
 Coeff-Com:  0.811D-04 0.168D-03-0.172D-03-0.663D-03-0.371D-03 0.275D-02
 Coeff-Com:  0.123D-01-0.181D-02-0.785D-01-0.959D-01 0.296D+00 0.866D+00
 Coeff:     -0.325D-06 0.717D-06 0.138D-05 0.133D-06-0.223D-04-0.197D-04
 Coeff:      0.811D-04 0.168D-03-0.172D-03-0.663D-03-0.371D-03 0.275D-02
 Coeff:      0.123D-01-0.181D-02-0.785D-01-0.959D-01 0.296D+00 0.866D+00
 Gap=     0.234 Goal=   None    Shift=    0.000
 RMSDP=9.30D-09 MaxDP=1.60D-06 DE=-2.76D-10 OVMax= 4.99D-07

 Cycle  19  Pass 1  IDiag  1:
 RMSU=  3.52D-09    CP:  7.97D-01  1.71D+00  9.14D-01  9.56D-01  1.58D+00
                    CP:  1.45D+00  2.21D+00  2.49D+00  2.10D+00  1.49D+00
                    CP:  1.71D+00  1.33D+00  1.38D+00  1.44D+00  1.51D+00
                    CP:  1.37D+00  1.48D+00  1.22D+00
 E= -1368.81332512324     Delta-E=        0.000000000189 Rises=F Damp=F
 DIIS: error= 6.43D-09 at cycle  19 NSaved=  19.
 NSaved=19 IEnMin=18 EnMin= -1368.81332512343     IErMin=19 ErrMin= 6.43D-09
 ErrMax= 6.43D-09  0.00D+00 EMaxC= 1.00D-01 BMatC= 2.69D-14 BMatP= 1.73D-13
 IDIUse=1 WtCom= 1.00D+00 WtEn= 0.00D+00
 Coeff-Com: -0.456D-07 0.894D-07 0.543D-06 0.867D-06 0.451D-06-0.145D-04
 Coeff-Com: -0.430D-04 0.378D-04 0.156D-03 0.743D-04-0.802D-03-0.891D-03
 Coeff-Com:  0.252D-02 0.839D-02-0.133D-02-0.376D-01-0.837D-01 0.217D+00
 Coeff-Com:  0.896D+00
 Coeff:     -0.456D-07 0.894D-07 0.543D-06 0.867D-06 0.451D-06-0.145D-04
 Coeff:     -0.430D-04 0.378D-04 0.156D-03 0.743D-04-0.802D-03-0.891D-03
 Coeff:      0.252D-02 0.839D-02-0.133D-02-0.376D-01-0.837D-01 0.217D+00
 Coeff:      0.896D+00
 Gap=     0.234 Goal=   None    Shift=    0.000
 RMSDP=4.70D-09 MaxDP=3.53D-07 DE= 1.89D-10 OVMax= 1.89D-07

 Error on total polarization charges =  0.01965
 SCF Done:  E(RCAM-B3LYP) =  -1368.81332512     A.U. after   19 cycles
            NFock= 19  Conv=0.47D-08     -V/T= 2.0036
 KE= 1.363866072322D+03 PE=-8.214948369731D+03 EE= 2.976930712011D+03
 Leave Link  502 at Wed Jan 15 17:20:47 2020, MaxMem=  6710886400 cpu:      7284.2
 (Enter /opt/sys/apps/gaussian09/D.01/g09/l801.exe)
 DoSCS=F DFT=T ScalE2(SS,OS)=  1.000000  1.000000
 ExpMin= 3.60D-02 ExpMax= 1.14D+04 ExpMxC= 1.72D+03 IAcc=3 IRadAn=         5 AccDes= 0.00D+00
 HarFok:  IExCor=  205 AccDes= 0.00D+00 IRadAn=         5 IDoV=-2 UseB2=F ITyADJ=14
 ICtDFT= 12500011 ScaDFX=  1.000000  1.000000  1.000000  1.000000
 Largest valence mixing into a core orbital is  5.29D-05
 Largest core mixing into a valence orbital is  1.46D-05
 Range of M.O.s used for correlation:    29   726
 NBasis=   735 NAE=   100 NBE=   100 NFC=    28 NFV=     0
 NROrb=    698 NOA=    72 NOB=    72 NVA=   626 NVB=   626

 **** Warning!!: The largest alpha MO coefficient is  0.15725951D+03

 Leave Link  801 at Wed Jan 15 17:20:48 2020, MaxMem=  6710886400 cpu:         7.4
 (Enter /opt/sys/apps/gaussian09/D.01/g09/l914.exe)
 RHF ground state
 MDV=  6710886400 DFT=T DoStab=F Mixed=T DoRPA=T DoScal=F NonHer=T
 Would need an additional        213263500000 words for in-memory AO integral storage.
 NEqPCM:  Using non-equilibrium solvation (IEInf=1, Eps=  78.3553, EpsInf=   1.7778)
 Inv3:  Mode=1 IEnd=    33587148.
 Iteration    1 A*A^-1 deviation from unit magnitude is 1.52D-14 for   3338.
 Iteration    1 A*A^-1 deviation from orthogonality  is 6.33D-15 for   3338   2749.
 Iteration    1 A^-1*A deviation from unit magnitude is 1.52D-14 for   3338.
 Iteration    1 A^-1*A deviation from orthogonality  is 1.77D-15 for   1652    798.
 Making orbital integer symmetry assigments:
     8 initial guesses have been made.
 Convergence on wavefunction:    0.000001000000000
 Davidson Disk Diagonalization:  ConvIn= 1.00D-06 SkipCon=T Conv= 1.00D-06.
 Max sub-space:   200 roots to seek:     8 dimension of matrix:        90144
 Iteration     1 Dimension     8 NMult     0 NNew      8
 CISAX will form     8 AO SS matrices at one time.
 NMat=     8 NSing=     8 JSym2X= 0.
 FoFJK:  IHMeth= 1 ICntrl=       0 DoSepK=T KAlg= 0 I1Cent=   0 FoldK=F
 IRaf=         1 NMat=  16 IRICut=       1 DoRegI=T DoRafI=F ISym2E= 0.
 New state      2 was old state      3
 Excitation Energies [eV] at current iteration:
 Root      1 :     3.409698094334784
 Root      2 :     4.568491806413431
 Root      3 :     5.233020604162747
 Root      4 :     5.728295223102801
 Root      5 :     6.031768217152240
 Root      6 :     6.120037596161170
 Root      7 :     6.361600047330190
 Root      8 :     6.700663438621931
 Iteration     2 Dimension    12 NMult     8 NNew      4
 CISAX will form     4 AO SS matrices at one time.
 NMat=     4 NSing=     4 JSym2X= 0.
 Root      1 not converged, maximum delta is    0.042057689957415
 Root      2 not converged, maximum delta is    0.042911521707190
 Excitation Energies [eV] at current iteration:
 Root      1 :     2.770678027935053   Change is   -0.639020066399731
 Root      2 :     4.051262437581840   Change is   -0.517229368831592
 Iteration     3 Dimension    16 NMult    12 NNew      4
 CISAX will form     4 AO SS matrices at one time.
 NMat=     4 NSing=     4 JSym2X= 0.
 Root      1 not converged, maximum delta is    0.017029260483810
 Root      2 not converged, maximum delta is    0.025069172931706
 Excitation Energies [eV] at current iteration:
 Root      1 :     2.720761114575315   Change is   -0.049916913359738
 Root      2 :     3.998231175151971   Change is   -0.053031262429869
 Iteration     4 Dimension    20 NMult    16 NNew      4
 CISAX will form     4 AO SS matrices at one time.
 NMat=     4 NSing=     4 JSym2X= 0.
 Root      1 not converged, maximum delta is    0.008330456389432
 Root      2 not converged, maximum delta is    0.024447348998037
 Excitation Energies [eV] at current iteration:
 Root      1 :     2.710482183751241   Change is   -0.010278930824074
 Root      2 :     3.977736228264283   Change is   -0.020494946887688
 Iteration     5 Dimension    24 NMult    20 NNew      4
 CISAX will form     4 AO SS matrices at one time.
 NMat=     4 NSing=     4 JSym2X= 0.
 Root      1 not converged, maximum delta is    0.001976909097313
 Root      2 not converged, maximum delta is    0.008742227183434
 Excitation Energies [eV] at current iteration:
 Root      1 :     2.709510189731895   Change is   -0.000971994019346
 Root      2 :     3.974285761449252   Change is   -0.003450466815031
 Iteration     6 Dimension    28 NMult    24 NNew      4
 CISAX will form     4 AO SS matrices at one time.
 NMat=     4 NSing=     4 JSym2X= 0.
 Root      1 not converged, maximum delta is    0.001123780426014
 Root      2 not converged, maximum delta is    0.006625330009590
 Excitation Energies [eV] at current iteration:
 Root      1 :     2.709346411336591   Change is   -0.000163778395303
 Root      2 :     3.973370743337435   Change is   -0.000915018111817
 Iteration     7 Dimension    32 NMult    28 NNew      4
 CISAX will form     4 AO SS matrices at one time.
 NMat=     4 NSing=     4 JSym2X= 0.
 Root      1 not converged, maximum delta is    0.000643412373760
 Root      2 not converged, maximum delta is    0.003355596022607
 Excitation Energies [eV] at current iteration:
 Root      1 :     2.709317834020150   Change is   -0.000028577316441
 Root      2 :     3.973146780465512   Change is   -0.000223962871923
 Iteration     8 Dimension    36 NMult    32 NNew      4
 CISAX will form     4 AO SS matrices at one time.
 NMat=     4 NSing=     4 JSym2X= 0.
 Root      1 not converged, maximum delta is    0.000199730756814
 Root      2 not converged, maximum delta is    0.011807692264939
 Excitation Energies [eV] at current iteration:
 Root      1 :     2.709314050749603   Change is   -0.000003783270547
 Root      2 :     3.972847929408745   Change is   -0.000298851056766
 Iteration     9 Dimension    40 NMult    36 NNew      4
 CISAX will form     4 AO SS matrices at one time.
 NMat=     4 NSing=     4 JSym2X= 0.
 Root      1 not converged, maximum delta is    0.000065325773978
 Root      2 not converged, maximum delta is    0.059949689357791
 Excitation Energies [eV] at current iteration:
 Root      1 :     2.709313490008066   Change is   -0.000000560741537
 Root      2 :     3.971630975155862   Change is   -0.001216954252884
 Iteration    10 Dimension    44 NMult    40 NNew      4
 CISAX will form     4 AO SS matrices at one time.
 NMat=     4 NSing=     4 JSym2X= 0.
 Root      1 not converged, maximum delta is    0.000029734182643
 Root      2 not converged, maximum delta is    0.148044573084072
 Excitation Energies [eV] at current iteration:
 Root      1 :     2.709313408315424   Change is   -0.000000081692642
 Root      2 :     3.968438538219704   Change is   -0.003192436936158
 Iteration    11 Dimension    48 NMult    44 NNew      4
 CISAX will form     4 AO SS matrices at one time.
 NMat=     4 NSing=     4 JSym2X= 0.
 Root      1 not converged, maximum delta is    0.000011977480762
 Root      2 not converged, maximum delta is    0.095562465479384
 Excitation Energies [eV] at current iteration:
 Root      1 :     2.709313396132764   Change is   -0.000000012182660
 Root      2 :     3.965784670840907   Change is   -0.002653867378797
 Iteration    12 Dimension    52 NMult    48 NNew      4
 CISAX will form     4 AO SS matrices at one time.
 NMat=     4 NSing=     4 JSym2X= 0.
 Root      1 not converged, maximum delta is    0.000008078735828
 Root      2 not converged, maximum delta is    0.026603782117860
 Excitation Energies [eV] at current iteration:
 Root      1 :     2.709313393841627   Change is   -0.000000002291136
 Root      2 :     3.964849882708995   Change is   -0.000934788131912
 Iteration    13 Dimension    56 NMult    52 NNew      4
 CISAX will form     4 AO SS matrices at one time.
 NMat=     4 NSing=     4 JSym2X= 0.
 Root      1 not converged, maximum delta is    0.000003723736749
 Root      2 not converged, maximum delta is    0.009698261633134
 Excitation Energies [eV] at current iteration:
 Root      1 :     2.709313393354872   Change is   -0.000000000486755
 Root      2 :     3.964465037195374   Change is   -0.000384845513621
 Iteration    14 Dimension    60 NMult    56 NNew      4
 CISAX will form     4 AO SS matrices at one time.
 NMat=     4 NSing=     4 JSym2X= 0.
 Root      1 not converged, maximum delta is    0.000001918756543
 Root      2 not converged, maximum delta is    0.001698201776706
 Excitation Energies [eV] at current iteration:
 Root      1 :     2.709313393251313   Change is   -0.000000000103559
 Root      2 :     3.964395531288629   Change is   -0.000069505906745
 Iteration    15 Dimension    64 NMult    60 NNew      4
 CISAX will form     4 AO SS matrices at one time.
 NMat=     4 NSing=     4 JSym2X= 0.
 Root      1 has converged.
 Root      2 not converged, maximum delta is    0.000555908027349
 Excitation Energies [eV] at current iteration:
 Root      1 :     2.709313393225249   Change is   -0.000000000026064
 Root      2 :     3.964386695009607   Change is   -0.000008836279022
 Iteration    16 Dimension    66 NMult    64 NNew      2
 CISAX will form     2 AO SS matrices at one time.
 NMat=     2 NSing=     2 JSym2X= 0.
 Root      1 has converged.
 Root      2 not converged, maximum delta is    0.000591841400227
 Excitation Energies [eV] at current iteration:
 Root      1 :     2.709313393244031   Change is    0.000000000018782
 Root      2 :     3.964384954389673   Change is   -0.000001740619935
 Iteration    17 Dimension    68 NMult    66 NNew      2
 CISAX will form     2 AO SS matrices at one time.
 NMat=     2 NSing=     2 JSym2X= 0.
 Root      1 has converged.
 Root      2 not converged, maximum delta is    0.000465404275590
 Excitation Energies [eV] at current iteration:
 Root      1 :     2.709313393238083   Change is   -0.000000000005947
 Root      2 :     3.964384425115079   Change is   -0.000000529274593
 Iteration    18 Dimension    70 NMult    68 NNew      2
 CISAX will form     2 AO SS matrices at one time.
 NMat=     2 NSing=     2 JSym2X= 0.
 Root      1 has converged.
 Root      2 not converged, maximum delta is    0.000198152286464
 Excitation Energies [eV] at current iteration:
 Root      1 :     2.709313393226159   Change is   -0.000000000011925
 Root      2 :     3.964384284699916   Change is   -0.000000140415164
 Iteration    19 Dimension    72 NMult    70 NNew      2
 CISAX will form     2 AO SS matrices at one time.
 NMat=     2 NSing=     2 JSym2X= 0.
 Root      1 has converged.
 Root      2 not converged, maximum delta is    0.000039939712701
 Excitation Energies [eV] at current iteration:
 Root      1 :     2.709313393218756   Change is   -0.000000000007404
 Root      2 :     3.964384263401588   Change is   -0.000000021298328
 Iteration    20 Dimension    74 NMult    72 NNew      2
 CISAX will form     2 AO SS matrices at one time.
 NMat=     2 NSing=     2 JSym2X= 0.
 Root      1 has converged.
 Root      2 not converged, maximum delta is    0.000004932381121
 Excitation Energies [eV] at current iteration:
 Root      1 :     2.709313393228647   Change is    0.000000000009891
 Root      2 :     3.964384260619971   Change is   -0.000000002781617
 Iteration    21 Dimension    76 NMult    74 NNew      2
 CISAX will form     2 AO SS matrices at one time.
 NMat=     2 NSing=     2 JSym2X= 0.
 Root      1 has converged.
 Root      2 not converged, maximum delta is    0.000001189123400
 Excitation Energies [eV] at current iteration:
 Root      1 :     2.709313393251009   Change is    0.000000000022363
 Root      2 :     3.964384260385400   Change is   -0.000000000234571
 Iteration    22 Dimension    78 NMult    76 NNew      2
 CISAX will form     2 AO SS matrices at one time.
 NMat=     2 NSing=     2 JSym2X= 0.
 Root      1 has converged.
 Root      2 has converged.
 Excitation Energies [eV] at current iteration:
 Root      1 :     2.709313393228344   Change is   -0.000000000022666
 Root      2 :     3.964384260343409   Change is   -0.000000000041991
 Convergence achieved on expansion vectors.
 ***********************************************************************
 Excited states from <AA,BB:AA,BB> singles matrix:
 ***********************************************************************
 
 1PDM for each excited state written to RWF  633
 Ground to excited state transition densities written to RWF  633
 Ground to excited state transition electric dipole moments (Au):
       state          X           Y           Z        Dip. S.      Osc.
         1        -3.7457     -1.8784     -0.3632     17.6900      1.1742
         2         0.2809     -0.1564     -0.0570      0.1066      0.0104
 Ground to excited state transition velocity dipole moments (Au):
       state          X           Y           Z        Dip. S.      Osc.
         1         0.3647      0.1798      0.0347      0.1665      1.1149
         2        -0.0404      0.0186      0.0073      0.0020      0.0093
 Ground to excited state transition magnetic dipole moments (Au):
       state          X           Y           Z
         1        -0.0920      0.3772     -1.1607
         2         0.2391      0.4502      0.1970
 Ground to excited state transition velocity quadrupole moments (Au):
       state          XX          YY          ZZ          XY          XZ          YZ
         1        -4.9313     -1.2215     -0.0191     -2.2362     -0.3710     -0.2369
         2         0.0367     -0.5752     -0.0166     -0.3522     -0.1150     -0.0713
 <0|del|b> * <b|rxdel|0> + <0|del|b> * <b|delr+rdel|0>
 Rotatory Strengths (R) in cgs (10**-40 erg-esu-cm/Gauss)
       state          XX          YY          ZZ    R(velocity)    E-M Angle
         1        59.3739   -293.4993    191.6624    -14.1543       90.69
         2        22.7758     -6.7254    -15.2848      0.2552       89.63
 1/2[<0|r|b>*<b|rxdel|0> + (<0|rxdel|b>*<b|r|0>)*]
 Rotatory Strengths (R) in cgs (10**-40 erg-esu-cm/Gauss)
       state          XX          YY          ZZ     R(length)
         1      -243.6550    501.0036   -298.0783    -13.5766
         2       -47.4792     49.7962      7.9338      3.4169
  1/2[<0|del|b>*<b|r|0> + (<0|r|b>*<b|del|0>)*] (Au)
       state          X           Y           Z        Dip. S.   Osc.(frdel)
         1        -1.3659     -0.3377     -0.0126      1.7162      1.1442
         2        -0.0113     -0.0029     -0.0004      0.0147      0.0098

 Excitation energies and oscillator strengths:
 
 Excited state symmetry could not be determined.
 Excited State   1:      Singlet-?Sym    2.7093 eV  457.62 nm  f=1.1742  <S**2>=0.000
      99 ->101         0.10262
     100 ->101         0.67952
 This state for optimization and/or second-order correction.
 Total Energy, E(TD-HF/TD-KS) =  -1368.71375968    
 Copying the excited state density for this state as the 1-particle RhoCI density.
 
 Excited state symmetry could not be determined.
 Excited State   2:      Singlet-?Sym    3.9644 eV  312.75 nm  f=0.0104  <S**2>=0.000
      96 ->101         0.36683
      96 ->102        -0.17302
      98 ->101        -0.17350
      99 ->101         0.46410
     100 ->102        -0.10791
 SavETr:  write IOETrn=   770 NScale= 10 NData=  16 NLR=1 NState=    2 LETran=      46.
 The selected state is a singlet
 CISAX will form     1 AO SS matrices at one time.
 NMat=     1 NSing=     1 JSym2X= 0.
 CISAX will form     1 AO SS matrices at one time.
 NMat=     1 NSing=     1 JSym2X= 0.
 Leave Link  914 at Wed Jan 15 17:41:30 2020, MaxMem=  6710886400 cpu:     29750.9
 (Enter /opt/sys/apps/gaussian09/D.01/g09/l1002.exe)
 Minotr:  Closed shell wavefunction.
          Computing CIS/TD-HF/TD-KS derivatives.
          Using Z-Vector for PSCF gradient.
          Skipping F1 and S1 gradient terms here.
 NEqPCM:  Using equilibrium solvation (IEInf=0, Eps=  78.3553, EpsInf=   1.7778)
          Frozen-core window.
          Direct CPHF calculation.
          Differentiating once with respect to electric field.
                with respect to dipole field.
          Electric field/nuclear overlap derivatives assumed to be zero.
          Requested convergence is 1.0D-10 RMS, and 1.0D-09 maximum.
          NewPWx=F KeepS1=T KeepF1=T KeepIn=T MapXYZ=F SortEE=F KeepMc=T.
          MDV=    6710885338 using IRadAn=       0.
 Using stored XC quadrature information.
          Solving linear equations separately, MaxMat=       0.
          There are     1 degrees of freedom in the 1st order CPHF.  IDoFFX=0 NUNeed=     1.
 FoFJK:  IHMeth= 1 ICntrl=       0 DoSepK=T KAlg= 0 I1Cent=   0 FoldK=F
 IRaf=         1 NMat=   1 IRICut=       1 DoRegI=T DoRafI=F ISym2E= 0.
 FoFCou: FMM=F IPFlag=           0 FMFlag=      100000 FMFlg1=           0
         NFxFlg=           0 DoJE=T BraDBF=F KetDBF=F FulRan=T
         wScrn=  0.000000 ICntrl=     500 IOpCl=  0 I1Cent=           0 NGrid=           0
         NMat0=    1 NMatS0=      1 NMatT0=    0 NMatD0=    1 NMtDS0=    0 NMtDT0=    0
 Symmetry not used in FoFCou.
 LinEq1:  Iter=  0 NonCon=     1 RMS=1.59D-03 Max=1.13D-01 NDo=     1
 AX will form     1 AO Fock derivatives at one time.
 LinEq1:  Iter=  1 NonCon=     1 RMS=7.58D-04 Max=7.86D-02 NDo=     1
 LinEq1:  Iter=  2 NonCon=     1 RMS=4.35D-04 Max=7.51D-02 NDo=     1
 LinEq1:  Iter=  3 NonCon=     1 RMS=2.21D-04 Max=2.40D-02 NDo=     1
 LinEq1:  Iter=  4 NonCon=     1 RMS=8.85D-05 Max=3.56D-03 NDo=     1
 LinEq1:  Iter=  5 NonCon=     1 RMS=3.37D-05 Max=1.81D-03 NDo=     1
 LinEq1:  Iter=  6 NonCon=     1 RMS=1.33D-05 Max=6.21D-04 NDo=     1
 LinEq1:  Iter=  7 NonCon=     1 RMS=5.82D-06 Max=3.14D-04 NDo=     1
 LinEq1:  Iter=  8 NonCon=     1 RMS=2.57D-06 Max=1.32D-04 NDo=     1
 LinEq1:  Iter=  9 NonCon=     1 RMS=1.32D-06 Max=5.62D-05 NDo=     1
 LinEq1:  Iter= 10 NonCon=     1 RMS=6.39D-07 Max=3.28D-05 NDo=     1
 LinEq1:  Iter= 11 NonCon=     1 RMS=3.53D-07 Max=2.13D-05 NDo=     1
 LinEq1:  Iter= 12 NonCon=     1 RMS=1.78D-07 Max=1.05D-05 NDo=     1
 LinEq1:  Iter= 13 NonCon=     1 RMS=9.41D-08 Max=5.08D-06 NDo=     1
 LinEq1:  Iter= 14 NonCon=     1 RMS=4.23D-08 Max=1.87D-06 NDo=     1
 LinEq1:  Iter= 15 NonCon=     1 RMS=1.94D-08 Max=1.19D-06 NDo=     1
 LinEq1:  Iter= 16 NonCon=     1 RMS=8.64D-09 Max=4.46D-07 NDo=     1
 LinEq1:  Iter= 17 NonCon=     1 RMS=3.91D-09 Max=1.51D-07 NDo=     1
 LinEq1:  Iter= 18 NonCon=     1 RMS=1.60D-09 Max=1.05D-07 NDo=     1
 LinEq1:  Iter= 19 NonCon=     1 RMS=7.77D-10 Max=3.59D-08 NDo=     1
 LinEq1:  Iter= 20 NonCon=     1 RMS=3.19D-10 Max=1.12D-08 NDo=     1
 LinEq1:  Iter= 21 NonCon=     1 RMS=1.28D-10 Max=5.82D-09 NDo=     1
 LinEq1:  Iter= 22 NonCon=     1 RMS=6.89D-11 Max=2.90D-09 NDo=     1
 LinEq1:  Iter= 23 NonCon=     1 RMS=3.06D-11 Max=1.90D-09 NDo=     1
 LinEq1:  Iter= 24 NonCon=     0 RMS=1.68D-11 Max=5.08D-10 NDo=     1
 Linear equations converged to 1.000D-10 1.000D-09 after    24 iterations.
 End of Minotr F.D. properties file   721 does not exist.
 End of Minotr F.D. properties file   722 does not exist.
 End of Minotr F.D. properties file   788 does not exist.
 Leave Link 1002 at Wed Jan 15 17:49:09 2020, MaxMem=  6710886400 cpu:     10975.7
 (Enter /opt/sys/apps/gaussian09/D.01/g09/l601.exe)
 Copying SCF densities to generalized density rwf, IOpCl= 0 IROHF=0.

 **********************************************************************

            Population analysis using the CI density.

 **********************************************************************

 Alpha  occ. eigenvalues --  -24.85420 -24.85257 -24.85200 -19.34886 -19.24182
 Alpha  occ. eigenvalues --  -14.49077 -14.48069 -10.58029 -10.41871 -10.41269
 Alpha  occ. eigenvalues --  -10.40496 -10.38478 -10.38221 -10.36188 -10.35650
 Alpha  occ. eigenvalues --  -10.35435 -10.35294 -10.34184 -10.34181 -10.33726
 Alpha  occ. eigenvalues --  -10.33214 -10.33175 -10.33136 -10.31730 -10.31701
 Alpha  occ. eigenvalues --  -10.31497 -10.29440 -10.29418  -1.47571  -1.38320
 Alpha  occ. eigenvalues --   -1.37972  -1.28981  -1.19113  -1.12809  -1.12282
 Alpha  occ. eigenvalues --   -1.05585  -1.02929  -0.98831  -0.95861  -0.94179
 Alpha  occ. eigenvalues --   -0.92831  -0.92310  -0.90572  -0.88104  -0.85837
 Alpha  occ. eigenvalues --   -0.83565  -0.82208  -0.80151  -0.79141  -0.77994
 Alpha  occ. eigenvalues --   -0.77342  -0.75270  -0.73846  -0.73643  -0.72508
 Alpha  occ. eigenvalues --   -0.71016  -0.69280  -0.67083  -0.66582  -0.65459
 Alpha  occ. eigenvalues --   -0.63675  -0.63127  -0.62139  -0.61957  -0.61804
 Alpha  occ. eigenvalues --   -0.60959  -0.59776  -0.59111  -0.58610  -0.57941
 Alpha  occ. eigenvalues --   -0.57611  -0.56567  -0.56433  -0.55896  -0.55832
 Alpha  occ. eigenvalues --   -0.55315  -0.55228  -0.54923  -0.54448  -0.53923
 Alpha  occ. eigenvalues --   -0.53426  -0.53057  -0.51440  -0.50818  -0.50548
 Alpha  occ. eigenvalues --   -0.49915  -0.49852  -0.49653  -0.49107  -0.48019
 Alpha  occ. eigenvalues --   -0.47143  -0.46200  -0.43659  -0.41127  -0.39299
 Alpha  occ. eigenvalues --   -0.38874  -0.38397  -0.37352  -0.34488  -0.28489
 Alpha virt. eigenvalues --   -0.05091   0.00643   0.02891   0.03500   0.03748
 Alpha virt. eigenvalues --    0.04052   0.04378   0.04445   0.05066   0.05438
 Alpha virt. eigenvalues --    0.05869   0.06281   0.06459   0.06639   0.06803
 Alpha virt. eigenvalues --    0.07477   0.07804   0.08081   0.08300   0.08574
 Alpha virt. eigenvalues --    0.09212   0.09918   0.10012   0.10278   0.10484
 Alpha virt. eigenvalues --    0.10731   0.11242   0.11454   0.12197   0.12448
 Alpha virt. eigenvalues --    0.12601   0.12944   0.13343   0.13646   0.13908
 Alpha virt. eigenvalues --    0.14649   0.14774   0.14916   0.15020   0.15460
 Alpha virt. eigenvalues --    0.15712   0.15811   0.16211   0.16393   0.16876
 Alpha virt. eigenvalues --    0.16971   0.17154   0.17335   0.17510   0.17696
 Alpha virt. eigenvalues --    0.17865   0.18231   0.18301   0.18384   0.18872
 Alpha virt. eigenvalues --    0.19073   0.19358   0.19774   0.19942   0.19962
 Alpha virt. eigenvalues --    0.20275   0.20699   0.21041   0.21187   0.21396
 Alpha virt. eigenvalues --    0.21524   0.21876   0.22095   0.22240   0.22548
 Alpha virt. eigenvalues --    0.22934   0.22995   0.23588   0.24029   0.24214
 Alpha virt. eigenvalues --    0.24290   0.24769   0.24876   0.25145   0.25666
 Alpha virt. eigenvalues --    0.25917   0.26354   0.26520   0.26700   0.26907
 Alpha virt. eigenvalues --    0.27228   0.27636   0.27881   0.28206   0.28454
 Alpha virt. eigenvalues --    0.28742   0.29237   0.29526   0.29764   0.29876
 Alpha virt. eigenvalues --    0.30066   0.30344   0.30496   0.30861   0.30998
 Alpha virt. eigenvalues --    0.31153   0.31539   0.31578   0.32120   0.32355
 Alpha virt. eigenvalues --    0.32897   0.33449   0.33692   0.33892   0.34292
 Alpha virt. eigenvalues --    0.34708   0.34945   0.35084   0.35384   0.35480
 Alpha virt. eigenvalues --    0.35671   0.35823   0.36205   0.36425   0.36608
 Alpha virt. eigenvalues --    0.36957   0.37355   0.37648   0.37773   0.38163
 Alpha virt. eigenvalues --    0.38449   0.38660   0.38679   0.39094   0.39324
 Alpha virt. eigenvalues --    0.39669   0.40104   0.40310   0.40428   0.40834
 Alpha virt. eigenvalues --    0.41052   0.41428   0.41853   0.42211   0.42593
 Alpha virt. eigenvalues --    0.42794   0.42985   0.43414   0.43833   0.44209
 Alpha virt. eigenvalues --    0.44402   0.44858   0.45214   0.45621   0.45821
 Alpha virt. eigenvalues --    0.46472   0.46753   0.47117   0.47815   0.48645
 Alpha virt. eigenvalues --    0.48919   0.49153   0.49936   0.50263   0.50558
 Alpha virt. eigenvalues --    0.50949   0.51672   0.52400   0.53561   0.53837
 Alpha virt. eigenvalues --    0.53975   0.55433   0.55961   0.57057   0.57521
 Alpha virt. eigenvalues --    0.57856   0.58813   0.59805   0.60792   0.61784
 Alpha virt. eigenvalues --    0.62031   0.62242   0.62485   0.62819   0.64129
 Alpha virt. eigenvalues --    0.64530   0.64759   0.64945   0.65934   0.66225
 Alpha virt. eigenvalues --    0.66943   0.67878   0.68651   0.69174   0.69475
 Alpha virt. eigenvalues --    0.69675   0.70402   0.71000   0.71241   0.71872
 Alpha virt. eigenvalues --    0.72146   0.72193   0.73083   0.73406   0.73656
 Alpha virt. eigenvalues --    0.74307   0.74442   0.75170   0.75578   0.75894
 Alpha virt. eigenvalues --    0.76190   0.76356   0.76699   0.77482   0.77624
 Alpha virt. eigenvalues --    0.77724   0.78543   0.78710   0.79107   0.79508
 Alpha virt. eigenvalues --    0.79935   0.80788   0.81139   0.81468   0.82170
 Alpha virt. eigenvalues --    0.82699   0.83170   0.83572   0.84707   0.84870
 Alpha virt. eigenvalues --    0.85262   0.85800   0.86271   0.86567   0.86872
 Alpha virt. eigenvalues --    0.87620   0.87843   0.88404   0.88985   0.89603
 Alpha virt. eigenvalues --    0.90025   0.90939   0.91649   0.92816   0.93650
 Alpha virt. eigenvalues --    0.94495   0.95951   0.96342   0.97615   0.98167
 Alpha virt. eigenvalues --    0.98439   0.99472   0.99952   1.00588   1.00907
 Alpha virt. eigenvalues --    1.01377   1.02176   1.02572   1.02819   1.03628
 Alpha virt. eigenvalues --    1.04784   1.05274   1.05571   1.06331   1.06531
 Alpha virt. eigenvalues --    1.07965   1.08594   1.09239   1.09664   1.10716
 Alpha virt. eigenvalues --    1.10927   1.11455   1.12183   1.12403   1.13362
 Alpha virt. eigenvalues --    1.13716   1.14008   1.14808   1.15148   1.15785
 Alpha virt. eigenvalues --    1.16537   1.16794   1.17126   1.17956   1.18999
 Alpha virt. eigenvalues --    1.19470   1.20282   1.21478   1.21883   1.22258
 Alpha virt. eigenvalues --    1.23061   1.23497   1.24139   1.24891   1.25549
 Alpha virt. eigenvalues --    1.28028   1.28657   1.30284   1.32564   1.33767
 Alpha virt. eigenvalues --    1.34171   1.34867   1.35531   1.37020   1.40741
 Alpha virt. eigenvalues --    1.42242   1.42716   1.43779   1.44718   1.45542
 Alpha virt. eigenvalues --    1.46124   1.46779   1.47650   1.48599   1.49691
 Alpha virt. eigenvalues --    1.49801   1.51359   1.52604   1.54967   1.55486
 Alpha virt. eigenvalues --    1.55902   1.56702   1.57450   1.58137   1.59001
 Alpha virt. eigenvalues --    1.59270   1.60334   1.60609   1.61398   1.61800
[...]
    35  H    0.000058  -0.000001   0.000000   0.000000   0.000000   0.000000
    36  H   -0.000018  -0.000019  -0.000002   0.000000   0.000000   0.000000
    37  H    0.000209   0.000015   0.000013   0.000000   0.000000   0.000000
    38  H   -0.002750  -0.000275  -0.000041   0.000000   0.000000   0.000000
    39  H    0.003617   0.000590   0.000242   0.000000  -0.000001   0.000000
    40  H    0.026953  -0.015847  -0.058276  -0.001996  -0.001711  -0.000742
    41  H   -0.005640  -0.004787   0.000130   0.000423   0.000321   0.000509
    42  H    0.016188   0.026420  -0.010506  -0.000009   0.000067   0.000188
    43  H    0.000017   0.000001   0.000000   0.000000   0.000000   0.000000
    44  H    0.000004  -0.000002   0.000000   0.000000   0.000000   0.000000
    45  H    0.000486   0.000018   0.000010   0.000000   0.000000   0.000000
              25         26         27         28         29         30
     1  O    0.010266  -0.002141  -0.028656   0.000000  -0.019879   0.000155
     2  C   -1.952918   0.881511   0.364327   0.000296   0.030951  -0.038639
     3  C   -0.656159   0.303011  -0.531534   0.001174   0.546272   0.023378
     4  C   -0.127175  -0.654879  -2.430893  -0.003857  -0.055405   0.020432
     5  O    0.005575   0.013693   0.088586  -0.000722  -0.011407  -0.051720
     6  C   -0.089429  -0.081246  -0.779125  -0.022492  -0.001556   0.270714
     7  C    0.010785   0.013059   0.016975   0.100925   0.002331   0.633789
     8  C    0.002081   0.005094   0.008123  -0.051396  -0.005668  -0.394578
     9  N   -0.000008  -0.000034  -0.000387   0.020990  -0.000101  -0.012411
    10  C   -0.000017   0.000145   0.001008   0.170508  -0.000114  -0.000230
    11  C    0.000004   0.000010   0.000139  -0.036318  -0.000028   0.003954
    12  C    0.000061   0.000200   0.002085  -0.234849   0.000166  -0.007217
    13  C   -0.000884   0.040994   0.230072  -0.061719   0.001585   0.013516
    14  C    0.035196   0.004013   0.165518  -0.020892   0.000826   0.075434
    15  C    0.106199   0.110394   1.299666  -0.002879  -0.033576  -0.157189
    16  N    0.005137   0.091074   0.213024   0.000132  -0.000889   0.001041
    17  C   -0.154465  -0.992234  -0.447008  -0.009393  -0.015244  -0.122008
    18  C    2.361094  -2.400989  -1.676345  -0.000108   0.000081  -0.006511
    19  C   -0.435796  -0.170032  -1.533402   0.000138  -0.056136  -0.007078
    20  C   -3.482731  -1.773958   1.815546   0.000040  -0.029092  -0.001742
    21  C    0.270935  -0.428065   0.285079   0.000002  -0.006246  -0.000748
    22  F    0.065383   0.024357  -0.006026   0.000000  -0.000121   0.000000
    23  F    0.002332   0.012045   0.002647   0.000000  -0.000087   0.000001
    24  F   -0.179458   0.109389   0.024821   0.000000   0.000015   0.000000
    25  C   13.426004   0.621178  -3.593280  -0.000005  -0.005829  -0.000029
    26  C    0.621178  10.393147   0.186606  -0.000022   0.003496  -0.000495
    27  C   -3.593280   0.186606  11.995346  -0.000299  -0.019081  -0.005754
    28  C   -0.000005  -0.000022  -0.000299   5.557433  -0.000046  -0.021613
    29  H   -0.005829   0.003496  -0.019081  -0.000046   0.447231  -0.003642
    30  H   -0.000029  -0.000495  -0.005754  -0.021613  -0.003642   0.577540
    31  H   -0.000001   0.000004   0.000033   0.007492   0.000002  -0.002607
    32  H   -0.000014  -0.000065  -0.000491   0.008800   0.000008   0.000484
    33  H    0.000000   0.000001   0.000007  -0.000787  -0.000001   0.000260
    34  H   -0.000001  -0.000007  -0.000063   0.005883   0.000000   0.001656
    35  H   -0.000002  -0.000007  -0.000035   0.002150   0.000007  -0.002352
    36  H    0.000003   0.000011   0.000106  -0.080588  -0.000005   0.006752
    37  H    0.000006   0.000003   0.000385  -0.063212   0.000321  -0.058011
    38  H    0.000466   0.002170   0.010683  -0.003078  -0.000015   0.003491
    39  H   -0.002082  -0.007478  -0.020577  -0.000103  -0.000093   0.002792
    40  H    0.486758  -0.059681  -0.030271   0.000000  -0.000080  -0.000003
    41  H   -0.059988   0.429063  -0.046050   0.000000   0.000015   0.000033
    42  H   -0.036074  -0.153854   0.475843   0.000006  -0.000202  -0.000218
    43  H   -0.000001  -0.000001  -0.000028   0.445144   0.000014   0.000407
    44  H    0.000002  -0.000001   0.000008   0.372887   0.000011  -0.001251
    45  H    0.000003   0.000010   0.000075   0.348804   0.000043  -0.014534
              31         32         33         34         35         36
     1  O    0.000000   0.000000   0.000000   0.000000   0.000000   0.000000
     2  C   -0.000040   0.000094  -0.000003   0.000015   0.000033  -0.000130
     3  C   -0.000263   0.000689  -0.000001   0.000102   0.000072  -0.000356
     4  C    0.000150   0.004083  -0.000430   0.000557   0.001144  -0.000281
     5  O    0.000060   0.000103  -0.000027  -0.000011   0.000038   0.000240
     6  C    0.008190  -0.015672  -0.003499   0.001011  -0.005031  -0.008245
     7  C   -0.016467   0.022381   0.000928   0.030231  -0.029572  -0.033761
     8  C    0.027560   0.058573  -0.006454  -0.027563   0.002473   0.014884
     9  N   -0.079885  -0.042688   0.023701  -0.001669  -0.011052  -0.072712
    10  C    0.507159   0.500115  -0.090590   0.041424   0.055488   0.013286
    11  C   -0.088943  -0.054976   0.435933   0.387408   0.346944   0.008962
    12  C    0.012929  -0.058693   0.005391  -0.045422   0.010965   0.504994
    13  C    0.006198  -0.044561   0.014276  -0.017660   0.010432  -0.015729
    14  C   -0.025108  -0.046570   0.011744  -0.000313  -0.027125  -0.002749
    15  C   -0.015562   0.017960   0.003366  -0.004922   0.001232   0.008731
    16  N   -0.000004   0.000181   0.000000  -0.000010   0.000187  -0.000024
    17  C   -0.001265   0.000234  -0.000251  -0.001197   0.002877   0.003785
    18  C    0.000063  -0.000258   0.000016  -0.000005  -0.000095  -0.000025
    19  C   -0.000029   0.000124  -0.000003   0.000001   0.000058  -0.000018
    20  C    0.000003   0.000018   0.000000   0.000004  -0.000001  -0.000019
    21  C    0.000000   0.000002   0.000000   0.000000   0.000000  -0.000002
    22  F    0.000000   0.000000   0.000000   0.000000   0.000000   0.000000
    23  F    0.000000   0.000000   0.000000   0.000000   0.000000   0.000000
    24  F    0.000000   0.000000   0.000000   0.000000   0.000000   0.000000
    25  C   -0.000001  -0.000014   0.000000  -0.000001  -0.000002   0.000003
    26  C    0.000004  -0.000065   0.000001  -0.000007  -0.000007   0.000011
    27  C    0.000033  -0.000491   0.000007  -0.000063  -0.000035   0.000106
    28  C    0.007492   0.008800  -0.000787   0.005883   0.002150  -0.080588
    29  H    0.000002   0.000008  -0.000001   0.000000   0.000007  -0.000005
    30  H   -0.002607   0.000484   0.000260   0.001656  -0.002352   0.006752
    31  H    0.497588  -0.043119  -0.007977  -0.000278   0.008829  -0.014549
    32  H   -0.043119   0.563048  -0.001246   0.013072  -0.012554   0.004017
    33  H   -0.007977  -0.001246   0.503607  -0.021865  -0.028475  -0.000523
    34  H   -0.000278   0.013072  -0.021865   0.551045  -0.058872  -0.005240
    35  H    0.008829  -0.012554  -0.028475  -0.058872   0.583528   0.001878
    36  H   -0.014549   0.004017  -0.000523  -0.005240   0.001878   0.495775
    37  H    0.005020  -0.008084   0.000497  -0.010008   0.002551  -0.040258
    38  H    0.009643  -0.044741  -0.002510  -0.002724  -0.001667  -0.002452
    39  H   -0.000113   0.004341   0.000094   0.000441  -0.000060   0.000036
    40  H    0.000000   0.000000   0.000000   0.000000   0.000000   0.000000
    41  H    0.000000   0.000001   0.000000   0.000000   0.000000   0.000000
    42  H   -0.000005  -0.000068   0.000000  -0.000001  -0.000014  -0.000007
    43  H   -0.000558   0.000599  -0.000075   0.000594  -0.000195  -0.006796
    44  H   -0.004863  -0.009287   0.000691  -0.004568   0.000676  -0.000140
    45  H    0.001294   0.002410  -0.000225   0.000665   0.000704   0.009347
              37         38         39         40         41         42
     1  O   -0.000006  -0.000002   0.000010   0.000197   0.000092  -0.000266
     2  C    0.002076  -0.001695   0.001877   0.004144  -0.003803  -0.012968
     3  C   -0.002410  -0.009455   0.011464   0.006118   0.003907  -0.022859
     4  C    0.009202  -0.048463   0.057391  -0.002945   0.013730  -0.037341
     5  O    0.003590   0.002006  -0.001847   0.000054  -0.000092  -0.000838
     6  C   -0.024910  -0.030011   0.085787  -0.001773   0.005150  -0.002460
     7  C   -0.077984  -0.011430   0.008853   0.000148  -0.000038  -0.001193
     8  C    0.048554  -0.233722   0.073629  -0.000012   0.000241  -0.003702
     9  N   -0.056845  -0.013626  -0.005318   0.000000  -0.000001   0.000045
    10  C   -0.063039   0.000397   0.007256   0.000000   0.000004  -0.000158
    11  C    0.003093  -0.002276  -0.002426   0.000000   0.000000   0.000040
    12  C    0.517185   0.002968  -0.003873   0.000000  -0.000001  -0.000052
    13  C    0.014764   0.695980  -0.061917   0.000006   0.000255  -0.005735
    14  C   -0.002340   0.091729   0.224406   0.000403  -0.002219   0.017599
    15  C    0.030898  -0.106599  -0.059563   0.001211  -0.004109   0.054988
    16  N   -0.000312   0.001781  -0.001336   0.000142   0.000088  -0.003086
    17  C    0.016357  -0.014701   0.026183  -0.009616   0.005687  -0.007638
    18  C    0.000664   0.004501  -0.006979   0.023115   0.007332   0.058808
    19  C    0.000209  -0.002750   0.003617   0.026953  -0.005640   0.016188
    20  C    0.000015  -0.000275   0.000590  -0.015847  -0.004787   0.026420
    21  C    0.000013  -0.000041   0.000242  -0.058276   0.000130  -0.010506
    22  F    0.000000   0.000000   0.000000  -0.001996   0.000423  -0.000009
    23  F    0.000000   0.000000  -0.000001  -0.001711   0.000321   0.000067
    24  F    0.000000   0.000000   0.000000  -0.000742   0.000509   0.000188
    25  C    0.000006   0.000466  -0.002082   0.486758  -0.059988  -0.036074
    26  C    0.000003   0.002170  -0.007478  -0.059681   0.429063  -0.153854
    27  C    0.000385   0.010683  -0.020577  -0.030271  -0.046050   0.475843
    28  C   -0.063212  -0.003078  -0.000103   0.000000   0.000000   0.000006
    29  H    0.000321  -0.000015  -0.000093  -0.000080   0.000015  -0.000202
    30  H   -0.058011   0.003491   0.002792  -0.000003   0.000033  -0.000218
    31  H    0.005020   0.009643  -0.000113   0.000000   0.000000  -0.000005
    32  H   -0.008084  -0.044741   0.004341   0.000000   0.000001  -0.000068
    33  H    0.000497  -0.002510   0.000094   0.000000   0.000000   0.000000
    34  H   -0.010008  -0.002724   0.000441   0.000000   0.000000  -0.000001
    35  H    0.002551  -0.001667  -0.000060   0.000000   0.000000  -0.000014
    36  H   -0.040258  -0.002452   0.000036   0.000000   0.000000  -0.000007
    37  H    0.565352   0.002238  -0.000991   0.000000  -0.000002   0.000038
    38  H    0.002238   0.485524  -0.020776   0.000006  -0.000038   0.000853
    39  H   -0.000991  -0.020776   0.439121  -0.000070   0.000403  -0.003472
    40  H    0.000000   0.000006  -0.000070   0.447415  -0.010387   0.002755
    41  H   -0.000002  -0.000038   0.000403  -0.010387   0.440375  -0.009746
    42  H    0.000038   0.000853  -0.003472   0.002755  -0.009746   0.437663
    43  H   -0.005649  -0.000218  -0.000005   0.000000   0.000000   0.000000
    44  H    0.013391   0.001738  -0.000237   0.000000   0.000000   0.000005
    45  H   -0.008366  -0.001743   0.000147   0.000000   0.000000  -0.000014
              43         44         45
     1  O    0.000000   0.000000   0.000000
     2  C    0.000015   0.000034   0.001033
     3  C    0.000464  -0.000090   0.000803
     4  C    0.000861  -0.001471   0.005460
     5  O   -0.000175   0.000053   0.000637
     6  C    0.002267  -0.008274  -0.000361
     7  C    0.032168  -0.023747  -0.026234
     8  C   -0.013204  -0.034191   0.023114
     9  N    0.028204  -0.007069  -0.013531
    10  C    0.007568  -0.048806   0.006504
    11  C   -0.001114   0.008692   0.000687
    12  C   -0.097085   0.056170   0.052036
    13  C   -0.007083   0.032870  -0.025971
    14  C   -0.001130   0.012776  -0.016600
    15  C   -0.001337   0.007117   0.000199
    16  N    0.000017  -0.000061   0.000185
    17  C   -0.001187   0.001290   0.004105
    18  C   -0.000044   0.000017  -0.000412
    19  C    0.000017   0.000004   0.000486
    20  C    0.000001  -0.000002   0.000018
    21  C    0.000000   0.000000   0.000010
    22  F    0.000000   0.000000   0.000000
    23  F    0.000000   0.000000   0.000000
    24  F    0.000000   0.000000   0.000000
    25  C   -0.000001   0.000002   0.000003
    26  C   -0.000001  -0.000001   0.000010
    27  C   -0.000028   0.000008   0.000075
    28  C    0.445144   0.372887   0.348804
    29  H    0.000014   0.000011   0.000043
    30  H    0.000407  -0.001251  -0.014534
    31  H   -0.000558  -0.004863   0.001294
    32  H    0.000599  -0.009287   0.002410
    33  H   -0.000075   0.000691  -0.000225
    34  H    0.000594  -0.004568   0.000665
    35  H   -0.000195   0.000676   0.000704
    36  H   -0.006796  -0.000140   0.009347
    37  H   -0.005649   0.013391  -0.008366
    38  H   -0.000218   0.001738  -0.001743
    39  H   -0.000005  -0.000237   0.000147
    40  H    0.000000   0.000000   0.000000
    41  H    0.000000   0.000000   0.000000
    42  H    0.000000   0.000005  -0.000014
    43  H    0.512028  -0.026319  -0.029515
    44  H   -0.026319   0.555150  -0.058657
    45  H   -0.029515  -0.058657   0.589562
 Mulliken charges:
               1
     1  O   -0.395080
     2  C   -0.648584
     3  C   -0.643837
     4  C    0.267564
     5  O   -0.089993
     6  C    0.240972
     7  C   -0.262017
     8  C   -0.250456
     9  N    0.237414
    10  C   -0.321022
    11  C   -0.443748
    12  C   -0.335428
    13  C   -0.187012
    14  C   -0.395274
    15  C    0.171657
    16  N    0.123966
    17  C    0.071294
    18  C    0.056298
    19  C    0.223907
    20  C    0.253702
    21  C    0.865254
    22  F   -0.081309
    23  F   -0.066741
    24  F   -0.163746
    25  C   -0.633121
    26  C   -0.519490
    27  C   -0.037402
    28  C   -0.428424
    29  H    0.231172
    30  H    0.274750
    31  H    0.209420
    32  H    0.181751
    33  H    0.164427
    34  H    0.168289
    35  H    0.144841
    36  H    0.211800
    37  H    0.186004
    38  H    0.238834
    39  H    0.250638
    40  H    0.193982
    41  H    0.239141
    42  H    0.220979
    43  H    0.161353
    44  H    0.165454
    45  H    0.147824
 Sum of Mulliken charges =   0.00000
 Mulliken charges with hydrogens summed into heavy atoms:
               1
     1  O   -0.395080
     2  C   -0.648584
     3  C   -0.412666
     4  C    0.267564
     5  O   -0.089993
     6  C    0.240972
     7  C    0.012733
     8  C   -0.250456
     9  N    0.237414
    10  C    0.070148
    11  C    0.033809
    12  C    0.062375
    13  C    0.051822
    14  C   -0.144636
    15  C    0.171657
    16  N    0.123966
    17  C    0.071294
    18  C    0.056298
    19  C    0.223907
    20  C    0.253702
    21  C    0.865254
    22  F   -0.081309
    23  F   -0.066741
    24  F   -0.163746
    25  C   -0.439139
    26  C   -0.280349
    27  C    0.183577
    28  C    0.046206
 Electronic spatial extent (au):  <R**2>=          32339.8399
 Charge=              0.0000 electrons
 Dipole moment (field-independent basis, Debye):
    X=             20.1706    Y=             14.0536    Z=              2.7489  Tot=             24.7368
 Quadrupole moment (field-independent basis, Debye-Ang):
   XX=           -280.9666   YY=           -224.2596   ZZ=           -168.4836
   XY=           -106.4565   XZ=            -21.3394   YZ=             -9.0766
 Traceless Quadrupole moment (field-independent basis, Debye-Ang):
   XX=            -56.3967   YY=              0.3104   ZZ=             56.0863
   XY=           -106.4565   XZ=            -21.3394   YZ=             -9.0766
 Octapole moment (field-independent basis, Debye-Ang**2):
  XXX=           3074.4833  YYY=           1194.3684  ZZZ=            122.2379  XYY=           1255.3626
  XXY=           1128.0828  XXZ=            217.1598  XZZ=            742.4646  YZZ=            288.1746
  YYZ=            106.8936  XYZ=             96.1647
 Hexadecapole moment (field-independent basis, Debye-Ang**3):
 XXXX=         -41824.0339 YYYY=          -8909.6241 ZZZZ=           -594.7448 XXXY=         -13217.6055
 XXXZ=          -2556.1870 YYYX=          -9028.8618 YYYZ=           -853.3279 ZZZX=          -1042.2594
 ZZZY=           -562.9515 XXYY=         -11285.1122 XXZZ=          -6162.8575 YYZZ=          -1337.0349
 XXYZ=           -957.6427 YYXZ=           -852.8358 ZZXY=          -2169.0665
 N-N= 2.505338260274D+03 E-N=-8.215574972964D+03  KE= 1.363966147921D+03
 No NMR shielding tensors so no spin-rotation constants.
 Leave Link  601 at Wed Jan 15 17:49:10 2020, MaxMem=  6710886400 cpu:         6.9
 (Enter /opt/sys/apps/gaussian09/D.01/g09/l9999.exe)

 Test job not archived.
 1\1\GINC-S61P32\SP\RCAM-B3LYP TD-FC\6-311++G(d,p)\C21H17F3N2O2\SALVATO
 RE\15-Jan-2020\0\\#p CAM-B3LYP/6-311++G** nosym density=current geom=a
 llcheck EmpiricalDispersion=GD3 SCRF=(CPCM, solvent=water) IOP(10/74=1
 0) TD=(NSTATES=2,ROOT=1,NONEQ) iop(3/119=0810000000) iop(3/120=0810000
 000)\\NRA_NRA1\\0,1\O,0,-6.8558996343,-5.1766712026,-0.8777892392\C,0,
 -6.380595088,-4.0472243487,-0.7044504079\C,0,-4.9516910136,-3.84858113
 98,-0.7284639003\C,0,-4.3877286354,-2.6449835373,-0.4551580025\O,0,-3.
 0292642579,-2.5395424599,-0.4837873009\C,0,-2.4359297125,-1.3426888506
 ,-0.1866552833\C,0,-1.0628960385,-1.278050432,-0.2242690739\C,0,-0.405
 5448269,-0.0582374252,0.0865841325\N,0,0.949052538,0.042159861,0.04521
 35672\C,0,1.6611800218,1.2522676677,0.4776662729\C,0,1.8321489623,2.27
 81142995,-0.6451155484\C,0,1.7958102198,-1.0536997874,-0.443464734\C,0
 ,-1.2239071712,1.064678883,0.4409736612\C,0,-2.5922946096,0.9695315167
 ,0.4685048295\C,0,-3.2535200625,-0.2381798542,0.1527314486\N,0,-4.6083
 057827,-0.3294063335,0.1701437661\C,0,-5.1696835861,-1.4781415619,-0.1
 261547087\C,0,-6.6288978914,-1.6111413908,-0.1356903136\C,0,-7.2473222
 87,-2.8480312057,-0.4516727446\C,0,-8.6693624477,-2.8901805225,-0.4879
 671176\C,0,-9.475281192,-4.1240678161,-0.8629051932\F,0,-9.1602520919,
 -4.6206682796,-2.0803965405\F,0,-9.3842759296,-5.1249288527,0.04247970
 32\F,0,-10.8083706473,-3.8401693026,-0.9365280167\C,0,-9.4107098525,-1
 .7524201125,-0.188230963\C,0,-8.7821140078,-0.5506466409,0.1467507121\
 C,0,-7.4063600342,-0.4786867316,0.164849043\C,0,2.1870879991,-2.043910
 2451,0.6563578372\H,0,-4.3320444908,-4.7090640765,-0.946336192\H,0,-0.
 5193267999,-2.1767898073,-0.4732206558\H,0,2.6386873503,0.9322192523,0
 .8438545194\H,0,1.1485685555,1.6904479505,1.3350925343\H,0,2.390245782
 2,3.1438506609,-0.2795515199\H,0,2.3829069201,1.8451000315,-1.48383470
 28\H,0,0.863902726,2.6227681901,-1.0147005724\H,0,2.6906285976,-0.5991
 32775,-0.8734073367\H,0,1.2912364415,-1.5617826077,-1.2670876142\H,0,-
 0.7682546288,2.0156043565,0.6717960807\H,0,-3.1980068756,1.830299039,0
 .7265556443\H,0,-10.4897039578,-1.7886747703,-0.2176014539\H,0,-9.3809
 816657,0.3210819977,0.3804425423\H,0,-6.9022349921,0.4469484048,0.4072
 628749\H,0,2.8293541259,-2.82636015,0.2441394972\H,0,2.7345607823,-1.5
 376872411,1.4553284746\H,0,1.3054891887,-2.5173226499,1.0941119947\\Ve
 rsion=ES64L-G09RevD.01\HF=-1368.8133251\RMSD=4.696e-09\Dipole=7.935711
 8,5.5291109,1.0814942\Quadrupole=-41.9295383,0.2307422,41.6987961,-79.
 1478166,-15.8653115,-6.7482181\PG=C01 [X(C21H17F3N2O2)]\\@


 IT CANNOT BE MY BEAUTY, FOR I HAVE NONE; AND IT CANNOT BE MY WIT,
 FOR HE HAS NOT ENOUGH TO KNOW THAT I HAVE ANY.
 -- CATHARINE SEDLEY, PUZZLED ABOUT WHY SHE WAS MISTRESS TO JAMES II
 Job cpu time:       0 days 13 hours 22 minutes 54.7 seconds.
 File lengths (MBytes):  RWF=    720 Int=      0 D2E=      0 Chk=    268 Scr=      1
 Normal termination of Gaussian 09 at Wed Jan 15 17:49:10 2020.
