 Entering Gaussian System, Link 0=g09
 Initial command:
 /opt/sys/apps/gaussian09/D.01/g09/l1.exe "/tmp/Gau-17330.inp" -scrdir="/tmp/"
 Entering Link 1 = /opt/sys/apps/gaussian09/D.01/g09/l1.exe PID=     17331.
  
 Copyright (c) 1988,1990,1992,1993,1995,1998,2003,2009,2013,
            Gaussian, Inc.  All Rights Reserved.
  
 This is part of the Gaussian(R) 09 program.  It is based on
 the Gaussian(R) 03 system (copyright 2003, Gaussian, Inc.),
 the Gaussian(R) 98 system (copyright 1998, Gaussian, Inc.),
 the Gaussian(R) 94 system (copyright 1995, Gaussian, Inc.),
 the Gaussian 92(TM) system (copyright 1992, Gaussian, Inc.),
 the Gaussian 90(TM) system (copyright 1990, Gaussian, Inc.),
 the Gaussian 88(TM) system (copyright 1988, Gaussian, Inc.),
 the Gaussian 86(TM) system (copyright 1986, Carnegie Mellon
 University), and the Gaussian 82(TM) system (copyright 1983,
 Carnegie Mellon University). Gaussian is a federally registered
 trademark of Gaussian, Inc.
  
 This software contains proprietary and confidential information,
 including trade secrets, belonging to Gaussian, Inc.
  
 This software is provided under written license and may be
 used, copied, transmitted, or stored only in accord with that
 written license.
  
 The following legend is applicable only to US Government
 contracts under FAR:
  
                    RESTRICTED RIGHTS LEGEND
  
 Use, reproduction and disclosure by the US Government is
 subject to restrictions as set forth in subparagraphs (a)
 and (c) of the Commercial Computer Software - Restricted
 Rights clause in FAR 52.227-19.
  
 Gaussian, Inc.
 340 Quinnipiac St., Bldg. 40, Wallingford CT 06492
  
  
 ---------------------------------------------------------------
 Warning -- This program may not be used in any manner that
 competes with the business of Gaussian, Inc. or will provide
 assistance to any competitor of Gaussian, Inc.  The licensee
 of this program is prohibited from giving any competitor of
 Gaussian, Inc. access to this program.  By using this program,
 the user acknowledges that Gaussian, Inc. is engaged in the
 business of creating and licensing software in the field of
 computational chemistry and represents and warrants to the
 licensee that it is not a competitor of Gaussian, Inc. and that
 it will not use this program in any manner prohibited above.
 ---------------------------------------------------------------
  

 Cite this work as:
 Gaussian 09, Revision D.01,
 M. J. Frisch, G. W. Trucks, H. B. Schlegel, G. E. Scuseria, 
 M. A. Robb, J. R. Cheeseman, G. Scalmani, V. Barone, B. Mennucci, 
 G. A. Petersson, H. Nakatsuji, M. Caricato, X. Li, H. P. Hratchian, 
 A. F. Izmaylov, J. Bloino, G. Zheng, J. L. Sonnenberg, M. Hada, 
 M. Ehara, K. Toyota, R. Fukuda, J. Hasegawa, M. Ishida, T. Nakajima, 
 Y. Honda, O. Kitao, H. Nakai, T. Vreven, J. A. Montgomery, Jr., 
 J. E. Peralta, F. Ogliaro, M. Bearpark, J. J. Heyd, E. Brothers, 
 K. N. Kudin, V. N. Staroverov, T. Keith, R. Kobayashi, J. Normand, 
 K. Raghavachari, A. Rendell, J. C. Burant, S. S. Iyengar, J. Tomasi, 
 M. Cossi, N. Rega, J. M. Millam, M. Klene, J. E. Knox, J. B. Cross, 
 V. Bakken, C. Adamo, J. Jaramillo, R. Gomperts, R. E. Stratmann, 
 O. Yazyev, A. J. Austin, R. Cammi, C. Pomelli, J. W. Ochterski, 
 R. L. Martin, K. Morokuma, V. G. Zakrzewski, G. A. Voth, 
 P. Salvador, J. J. Dannenberg, S. Dapprich, A. D. Daniels, 
 O. Farkas, J. B. Foresman, J. V. Ortiz, J. Cioslowski, 
 and D. J. Fox, Gaussian, Inc., Wallingford CT, 2013.
 
 ******************************************
 Gaussian 09:  ES64L-G09RevD.01 24-Apr-2013
                17-Feb-2020 
 ******************************************
 %NProcShared=24
 Will use up to   24 processors via shared memory.
 %oldChk=checkpointCPCM_ethan.chk
 %Chk=checkpointCPCM_ethanolES.chk
 %mem=50Gb
 Copying data from "checkpointCPCM_ethan.chk" to current chk file "checkpointCPCM_ethanolES.chk".
 ----------------------------------------------------------------------
 #p CAM-B3LYP/6-311++G** nosym density=current geom=allcheck EmpiricalD
 ispersion=GD3 SCRF=(CPCM, solvent=ethanol) IOP(10/74=10) TD=(NSTATES=1
 0,ROOT=1,NONEQ) iop(3/119=0810000000) iop(3/120=0810000000)
 ----------------------------------------------------------------------
 1/29=7,30=1,38=1/1;
 2/12=2,15=1,40=1/2;
 3/5=4,6=6,7=1111,11=9,14=-4,16=1,25=1,30=1,70=2101,71=1,72=4,74=-40,119=810000000,120=810000000,124=31/1,2,8,3;
 4//1;
 5/5=2,38=5,53=4/2;
 8/6=1,10=2,107=1,108=10/1;
 9/8=1,15=1,41=10,42=1,70=2,73=1/14;
 10/5=4,13=10,31=1,74=10/2;
 6/7=2,8=2,9=2,10=2,22=-1/1;
 99/5=1,9=1/99;
 Leave Link    1 at Mon Feb 17 09:42:51 2020, MaxMem=  6710886400 cpu:        25.0
 (Enter /opt/sys/apps/gaussian09/D.01/g09/l101.exe)
 Structure from the checkpoint file:  "checkpointCPCM_ethanolES.chk"
 ---
 Nil
 ---
 Charge =  0 Multiplicity = 1
 Redundant internal coordinates found in file.
 C,0,2.7631166535,-1.6104962466,-0.2057346899
 C,0,1.4311207271,-1.9430978243,-0.2361980655
 C,0,0.4237491581,-0.9619566114,-0.1140953577
 C,0,0.8541744724,0.375729319,0.0389332997
 C,0,2.1810018188,0.7405812364,0.0724820067
 C,0,3.1884754045,-0.2515927897,-0.0469981642
 C,0,-1.4103666291,1.0542216463,0.1197609058
 C,0,-1.7897686599,-0.3386078978,-0.0291152362
 C,0,-3.2201969374,-0.6443702392,-0.0524624183
 C,0,-4.1644810554,0.4001704592,0.0635119043
 C,0,-3.7293333384,1.8177007116,0.2101898883
 C,0,-2.3088967063,2.0699271013,0.2311537067
 H,0,3.4937839784,-2.4010423249,-0.2852773134
 H,0,1.1256754962,-2.9769006227,-0.3480562486
 H,0,2.4147973888,1.789742818,0.1721062569
 H,0,-1.9672015628,3.0916757302,0.339336909
 O,0,-0.0834604084,1.3662858678,0.1506859275
 N,0,-0.8963246554,-1.2914086585,-0.1414405173
 N,0,4.5093631553,0.074761563,-0.0085958811
 C,0,4.9636624031,1.4420880068,0.2712071018
 H,0,4.3057959254,1.8981342486,1.0132954138
 H,0,5.9437911634,1.3641496835,0.7460668232
 C,0,5.5682585707,-0.9138458764,-0.2491978372
 H,0,5.2455980479,-1.6137830381,-1.0214532337
 H,0,6.4184350053,-0.3740700303,-0.6711680058
 C,0,5.9966135754,-1.6549535745,1.0199826269
 H,0,5.1644650063,-2.2182138114,1.4482049583
 H,0,6.8049246677,-2.3544235745,0.7914320795
 H,0,6.3561175869,-0.9515050874,1.7751968387
 C,0,5.059443818,2.3104843834,-0.9859245757
 H,0,5.7534896594,1.8699843284,-1.7061767766
 H,0,4.0860795164,2.4139271145,-1.4705145759
 H,0,5.4228712833,3.3081120326,-0.7262430856
 O,0,-4.5577346248,2.7383786752,0.3105444803
 C,0,-3.6751466214,-1.9677422106,-0.1894990628
 C,0,-5.5340353721,0.1004185815,0.0405675816
 C,0,-5.9695671085,-1.2091612181,-0.0945356367
 H,0,-5.370171631,-3.2708291102,-0.3158527549
 C,0,-5.0329928515,-2.2460005358,-0.2099174145
 H,0,-7.0303419844,-1.4311054995,-0.1111131927
 H,0,-2.9487676233,-2.7650866068,-0.2783918164
 H,0,-6.2403147121,0.9162878813,0.130825152
 Recover connectivity data from disk.
 NAtoms=     42 NQM=       42 NQMF=       0 NMMI=      0 NMMIF=      0
                NMic=       0 NMicF=      0.
                    Isotopes and Nuclear Properties:
 (Nuclear quadrupole moments (NQMom) in fm**2, nuclear magnetic moments (NMagM)
  in nuclear magnetons)

  Atom         1           2           3           4           5           6           7           8           9          10
 IAtWgt=          12          12          12          12          12          12          12          12          12          12
 AtmWgt=  12.0000000  12.0000000  12.0000000  12.0000000  12.0000000  12.0000000  12.0000000  12.0000000  12.0000000  12.0000000
 NucSpn=           0           0           0           0           0           0           0           0           0           0
 AtZEff=  -3.6000000  -3.6000000  -3.6000000  -3.6000000  -3.6000000  -3.6000000  -3.6000000  -3.6000000  -3.6000000  -3.6000000
 NQMom=    0.0000000   0.0000000   0.0000000   0.0000000   0.0000000   0.0000000   0.0000000   0.0000000   0.0000000   0.0000000
 NMagM=    0.0000000   0.0000000   0.0000000   0.0000000   0.0000000   0.0000000   0.0000000   0.0000000   0.0000000   0.0000000
 AtZNuc=   6.0000000   6.0000000   6.0000000   6.0000000   6.0000000   6.0000000   6.0000000   6.0000000   6.0000000   6.0000000

  Atom        11          12          13          14          15          16          17          18          19          20
 IAtWgt=          12          12           1           1           1           1          16          14          14          12
 AtmWgt=  12.0000000  12.0000000   1.0078250   1.0078250   1.0078250   1.0078250  15.9949146  14.0030740  14.0030740  12.0000000
 NucSpn=           0           0           1           1           1           1           0           2           2           0
 AtZEff=  -3.6000000  -3.6000000  -1.0000000  -1.0000000  -1.0000000  -1.0000000  -5.6000000  -4.5500000  -4.5500000  -3.6000000
 NQMom=    0.0000000   0.0000000   0.0000000   0.0000000   0.0000000   0.0000000   0.0000000   2.0440000   2.0440000   0.0000000
 NMagM=    0.0000000   0.0000000   2.7928460   2.7928460   2.7928460   2.7928460   0.0000000   0.4037610   0.4037610   0.0000000
 AtZNuc=   6.0000000   6.0000000   1.0000000   1.0000000   1.0000000   1.0000000   8.0000000   7.0000000   7.0000000   6.0000000

  Atom        21          22          23          24          25          26          27          28          29          30
 IAtWgt=           1           1          12           1           1          12           1           1           1          12
 AtmWgt=   1.0078250   1.0078250  12.0000000   1.0078250   1.0078250  12.0000000   1.0078250   1.0078250   1.0078250  12.0000000
 NucSpn=           1           1           0           1           1           0           1           1           1           0
 AtZEff=  -1.0000000  -1.0000000  -3.6000000  -1.0000000  -1.0000000  -3.6000000  -1.0000000  -1.0000000  -1.0000000  -3.6000000
 NQMom=    0.0000000   0.0000000   0.0000000   0.0000000   0.0000000   0.0000000   0.0000000   0.0000000   0.0000000   0.0000000
 NMagM=    2.7928460   2.7928460   0.0000000   2.7928460   2.7928460   0.0000000   2.7928460   2.7928460   2.7928460   0.0000000
 AtZNuc=   1.0000000   1.0000000   6.0000000   1.0000000   1.0000000   6.0000000   1.0000000   1.0000000   1.0000000   6.0000000

  Atom        31          32          33          34          35          36          37          38          39          40
 IAtWgt=           1           1           1          16          12          12          12           1          12           1
 AtmWgt=   1.0078250   1.0078250   1.0078250  15.9949146  12.0000000  12.0000000  12.0000000   1.0078250  12.0000000   1.0078250
 NucSpn=           1           1           1           0           0           0           0           1           0           1
 AtZEff=  -1.0000000  -1.0000000  -1.0000000  -5.6000000  -3.6000000  -3.6000000  -3.6000000  -1.0000000  -3.6000000  -1.0000000
 NQMom=    0.0000000   0.0000000   0.0000000   0.0000000   0.0000000   0.0000000   0.0000000   0.0000000   0.0000000   0.0000000
 NMagM=    2.7928460   2.7928460   2.7928460   0.0000000   0.0000000   0.0000000   0.0000000   2.7928460   0.0000000   2.7928460
 AtZNuc=   1.0000000   1.0000000   1.0000000   8.0000000   6.0000000   6.0000000   6.0000000   1.0000000   6.0000000   1.0000000

  Atom        41          42
 IAtWgt=           1           1
 AtmWgt=   1.0078250   1.0078250
 NucSpn=           1           1
 AtZEff=  -1.0000000  -1.0000000
 NQMom=    0.0000000   0.0000000
 NMagM=    2.7928460   2.7928460
 AtZNuc=   1.0000000   1.0000000
 Leave Link  101 at Mon Feb 17 09:42:51 2020, MaxMem=  6710886400 cpu:         6.8
 (Enter /opt/sys/apps/gaussian09/D.01/g09/l202.exe)
                          Input orientation:                          
 ---------------------------------------------------------------------
 Center     Atomic      Atomic             Coordinates (Angstroms)
 Number     Number       Type             X           Y           Z
 ---------------------------------------------------------------------
      1          6           0        2.763117   -1.610496   -0.205735
      2          6           0        1.431121   -1.943098   -0.236198
      3          6           0        0.423749   -0.961957   -0.114095
      4          6           0        0.854174    0.375729    0.038933
      5          6           0        2.181002    0.740581    0.072482
      6          6           0        3.188475   -0.251593   -0.046998
      7          6           0       -1.410367    1.054222    0.119761
      8          6           0       -1.789769   -0.338608   -0.029115
      9          6           0       -3.220197   -0.644370   -0.052462
     10          6           0       -4.164481    0.400170    0.063512
     11          6           0       -3.729333    1.817701    0.210190
     12          6           0       -2.308897    2.069927    0.231154
     13          1           0        3.493784   -2.401042   -0.285277
     14          1           0        1.125675   -2.976901   -0.348056
     15          1           0        2.414797    1.789743    0.172106
     16          1           0       -1.967202    3.091676    0.339337
     17          8           0       -0.083460    1.366286    0.150686
     18          7           0       -0.896325   -1.291409   -0.141441
     19          7           0        4.509363    0.074762   -0.008596
     20          6           0        4.963662    1.442088    0.271207
     21          1           0        4.305796    1.898134    1.013295
     22          1           0        5.943791    1.364150    0.746067
     23          6           0        5.568259   -0.913846   -0.249198
     24          1           0        5.245598   -1.613783   -1.021453
     25          1           0        6.418435   -0.374070   -0.671168
     26          6           0        5.996614   -1.654954    1.019983
     27          1           0        5.164465   -2.218214    1.448205
     28          1           0        6.804925   -2.354424    0.791432
     29          1           0        6.356118   -0.951505    1.775197
     30          6           0        5.059444    2.310484   -0.985925
     31          1           0        5.753490    1.869984   -1.706177
     32          1           0        4.086080    2.413927   -1.470515
     33          1           0        5.422871    3.308112   -0.726243
     34          8           0       -4.557735    2.738379    0.310544
     35          6           0       -3.675147   -1.967742   -0.189499
     36          6           0       -5.534035    0.100419    0.040568
     37          6           0       -5.969567   -1.209161   -0.094536
     38          1           0       -5.370172   -3.270829   -0.315853
     39          6           0       -5.032993   -2.246001   -0.209917
     40          1           0       -7.030342   -1.431105   -0.111113
     41          1           0       -2.948768   -2.765087   -0.278392
     42          1           0       -6.240315    0.916288    0.130825
 ---------------------------------------------------------------------
                    Distance matrix (angstroms):
                    1          2          3          4          5
     1  C    0.000000
     2  C    1.373232   0.000000
     3  C    2.429329   1.411504   0.000000
     4  C    2.765685   2.405312   1.413537   0.000000
     5  C    2.437997   2.803522   2.453851   1.376486   0.000000
     6  C    1.432741   2.446483   2.855316   2.418652   1.419045
     7  C    4.962321   4.145441   2.735625   2.365382   3.605348
     8  C    4.730503   3.604358   2.301184   2.739588   4.116065
     9  C    6.062750   4.832723   3.658279   4.201126   5.577334
    10  C    7.218510   6.073837   4.789446   5.018775   6.354614
    11  C    7.353736   6.401028   5.007969   4.808030   6.009260
    12  C    6.281855   5.505499   4.096202   3.593365   4.685246
    13  H    1.079428   2.113457   3.394906   3.844881   3.423622
    14  H    2.137412   1.083770   2.146494   3.385794   3.887189
    15  H    3.438854   3.881808   3.408524   2.110145   1.079502
    16  H    6.692043   6.101539   4.728021   3.927693   4.775610
    17  O    4.134159   3.660008   2.397516   1.368521   2.350619
    18  N    3.673889   2.418818   1.360838   2.424073   3.693871
    19  N    2.434817   3.687701   4.216415   3.667867   2.423047
    20  C    3.793171   4.918922   5.151573   4.251936   2.876596
    21  H    4.021987   4.957828   4.951910   3.896253   2.596114
    22  H    4.457705   5.680398   6.051571   5.232706   3.873130
    23  C    2.890680   4.263266   5.146508   4.895775   3.783400
    24  H    2.613067   3.908364   4.949586   4.936312   4.016401
    25  H    3.886738   5.246365   6.049149   5.659279   4.444244
    26  C    3.458303   4.743916   5.729153   5.615230   4.603829
    27  H    2.978475   4.104968   5.147169   5.224289   4.421327
    28  H    4.228946   5.486618   6.593811   6.590252   5.610402
    29  H    4.155480   5.411521   6.225956   5.920096   4.816013
    30  C    4.610413   5.640902   5.740960   4.741086   3.445323
    31  H    4.827774   5.948387   6.241854   5.411238   4.147511
    32  H    4.421073   5.249382   5.162279   4.108271   2.968206
    33  H    5.615864   6.614335   6.602987   5.482459   4.211875
    34  O    8.530775   7.621124   6.219966   5.911400   7.032669
    35  C    6.448188   5.106540   4.221165   5.104781   6.457408
    36  C    8.475295   7.264018   6.053739   6.394140   7.741616
    37  C    8.742608   7.438341   6.398124   7.006650   8.382193
    38  H    8.301759   6.930137   6.240282   7.222586   8.559348
    39  C    7.821969   6.471260   5.606602   6.449351   7.812883
    40  H    9.795559   8.477861   7.468841   8.090288   9.465663
    41  H    5.827862   4.456553   3.827811   4.942448   6.223131
    42  H    9.357333   8.195225   6.928025   7.115646   8.423351
                    6          7          8          9         10
     6  C    0.000000
     7  C    4.783546   0.000000
     8  C    4.979037   1.451235   0.000000
     9  C    6.420700   2.488044   1.462929   0.000000
    10  C    7.382613   2.831271   2.488701   1.412865   0.000000
    11  C    7.225247   2.443089   2.910128   2.527845   1.490054
    12  C    5.973937   1.360670   2.477554   2.877206   2.501876
    13  H    2.184061   6.012786   5.677604   6.943892   8.161953
    14  H    3.431193   4.785427   3.944886   4.941121   6.289655
    15  H    2.194000   3.895589   4.716857   6.142353   6.725296
    16  H    6.156923   2.123558   3.454575   3.959993   3.485444
    17  O    3.655431   1.363459   2.418776   3.731370   4.194724
    18  N    4.216127   2.415460   1.310988   2.413909   3.685687
    19  N    1.361149   6.001585   6.312714   7.763065   8.680246
    20  C    2.474085   6.387615   6.990701   8.451841   9.189762
    21  H    2.644608   5.846803   6.576134   8.015032   8.653992
    22  H    3.291100   7.387283   7.956647   9.415438  10.177048
    23  C    2.478474   7.260209   7.383759   8.794787   9.826019
    24  H    2.652712   7.261025   7.218531   8.576036   9.684149
    25  H    3.291994   7.997232   8.233353   9.662250  10.636603
    26  C    3.315646   7.938097   7.966249   9.333864  10.410870
    27  H    3.163505   7.463378   7.353690   8.662075   9.787877
    28  H    4.266564   8.919698   8.865978  10.204876  11.333381
    29  H    3.720783   8.190341   8.365802   9.753998  10.744296
    30  C    3.308526   6.682753   7.405733   8.840530   9.477943
    31  H    3.719309   7.437765   8.036863   9.464872  10.181272
    32  H    3.152315   5.881215   6.646779   8.046473   8.630191
    33  H    4.257393   7.244921   8.112135   9.527787  10.049734
    34  O    8.310929   3.574732   4.152692   3.655649   2.383882
    35  C    7.076354   3.789081   2.496888   1.406084   2.431146
    36  C    8.730050   4.233280   3.770561   2.432532   1.402161
    37  C    9.208091   5.094618   4.269995   2.807097   2.423482
    38  H    9.079566   5.880126   4.636747   3.404417   3.882505
    39  C    8.461486   4.911576   3.766874   2.424096   2.798446
    40  H   10.286865   6.149331   5.353866   3.890964   3.405470
    41  H    6.636034   4.136704   2.700596   2.149920   3.407889
    42  H    9.502508   4.831930   4.626846   3.404462   2.140092
                   11         12         13         14         15
    11  C    0.000000
    12  C    1.442809   0.000000
    13  H    8.379541   7.343526   0.000000
    14  H    6.846236   6.132067   2.437928   0.000000
    15  H    6.144312   4.732365   4.351562   4.965208   0.000000
    16  H    2.178256   1.082788   7.770615   6.845876   4.574375
    17  O    3.674195   2.335413   5.213396   4.535860   2.533982
    18  N    4.220917   3.665074   4.530456   2.640465   4.533799
    19  N    8.423884   7.108223   2.690271   4.569159   2.713120
    20  C    8.701321   7.299719   4.152092   5.885668   2.574373
    21  H    8.075565   6.662989   4.563833   5.977659   2.072492
    22  H    9.698567   8.298802   4.609000   6.576934   3.600605
    23  C    9.701423   8.437015   2.552744   4.899236   4.175070
    24  H    9.687178   8.497596   2.056839   4.391505   4.584976
    25  H   10.419110   9.107888   3.579261   5.906982   4.628424
    26  C   10.359012   9.136656   2.919676   5.229255   5.041253
    27  H    9.844843   8.701753   2.414449   4.484861   5.025218
    28  H   11.345266  10.146454   3.482116   5.825786   6.068846
    29  H   10.575163   9.305675   3.813091   5.997329   5.061457
    30  C    8.883475   7.472054   5.014048   6.621016   2.933660
    31  H    9.674664   8.294293   5.036556   6.837649   3.831612
    32  H    8.016292   6.626442   4.993950   6.251794   2.425076
    33  H    9.319929   7.888596   6.042373   7.623011   3.487260
    34  O    1.242565   2.347425   9.570559   8.086985   7.038130
    35  C    3.806871   4.283265   7.182652   4.908303   7.164975
    36  C    2.496954   3.783756   9.373633   7.346609   8.127426
    37  C    3.778015   4.925343   9.540020   7.316532   8.908540
    38  H    5.372356   6.180153   8.906580   6.502573   9.298023
    39  C    4.288320   5.122741   8.528519   6.203426   8.479549
    40  H    4.642697   5.887820  10.570163   8.304592   9.983223
    41  H    4.674391   4.903716   6.452832   4.080540   7.051046
    42  H    2.669058   4.098414  10.292254   8.345301   8.699172
                   16         17         18         19         20
    16  H    0.000000
    17  O    2.561453   0.000000
    18  N    4.537549   2.794535   0.000000
    19  N    7.153231   4.773619   5.577233   0.000000
    20  C    7.124792   5.049131   6.479331   1.467739   0.000000
    21  H    6.421001   4.504723   6.210367   2.100093   1.091541
    22  H    8.107625   6.056587   7.390997   2.071140   1.091888
    23  C    8.554165   6.107441   6.476496   1.468500   2.487324
    24  H    8.718806   6.217201   6.213016   2.102167   3.329986
    25  H    9.129700   6.780776   7.391064   2.070026   2.510551
    26  C    9.296027   6.844769   6.999548   2.502359   3.349525
    27  H    8.960200   6.486364   6.333965   2.794488   3.850124
    28  H   10.335114   7.855195   7.830038   3.436654   4.251398
    29  H    9.364115   7.034156   7.509125   2.765075   3.151223
    30  C    7.193075   5.350968   7.011274   2.501243   1.530904
    31  H    8.079958   6.145863   7.527472   2.766307   2.171859
    32  H    6.354299   4.594661   6.349827   2.790712   2.179040
    33  H    7.469637   5.904183   7.837718   3.435705   2.165139
    34  O    2.614672   4.682662   5.463460   9.455632   9.609314
    35  C    5.366046   4.912401   2.860348   8.437461   9.298829
    36  C    4.664674   5.596723   4.845479  10.043552  10.585600
    37  C    5.891042   6.429566   5.074126  10.557643  11.256038
    38  H    7.245064   7.047681   4.895287  10.435161  11.372966
    39  C    6.179931   6.138120   4.245934   9.822577  10.666142
    40  H    6.803958   7.493537   6.135683  11.637996  12.339269
    41  H    5.970488   5.046021   2.530416   7.985064   8.978247
    42  H    4.799509   6.173309   5.788461  10.783468  11.217187
                   21         22         23         24         25
    21  H    0.000000
    22  H    1.743439   0.000000
    23  C    3.330906   2.514128   0.000000
    24  H    4.166172   3.532660   1.091055   0.000000
    25  H    3.530379   2.292433   1.091887   1.742164   0.000000
    26  C    3.934888   3.031964   1.530865   2.175587   2.163004
    27  H    4.227385   3.732784   2.178440   2.543842   3.076532
    28  H    4.937521   3.817250   2.165068   2.503318   2.492062
    29  H    3.592319   2.567368   2.172628   3.081090   2.514362
    30  C    2.175982   2.162733   3.346336   3.928841   3.025353
    31  H    3.080931   2.511092   3.147508   3.586563   2.559136
    32  H    2.546297   3.076745   3.842205   4.215280   3.721796
    33  H    2.502377   2.493601   4.251310   4.933926   3.814793
    34  O    8.930960  10.600011  10.779044  10.808370  11.451087
    35  C    8.949143  10.222561   9.303483   8.966444  10.229965
    36  C   10.049889  11.568718  11.152292  10.966625  11.983040
    37  C   10.791926  12.217064  11.542641  11.260676  12.429500
    38  H   11.050302  12.272590  11.189686  10.767462  12.144493
    39  C   10.289950  11.594692  10.684695  10.329943  11.612583
    40  H   11.868284  13.299486  12.609971  12.311003  13.501873
    41  H    8.720251   9.857876   8.715944   8.308145   9.675522
    42  H   10.628416  12.207847  11.955593  11.817580  12.749595
                   26         27         28         29         30
    26  C    0.000000
    27  H    1.092295   0.000000
    28  H    1.093097   1.772290   0.000000
    29  H    1.092900   1.769607   1.771271   0.000000
    30  C    4.541657   5.142482   5.288390   4.466064   0.000000
    31  H    4.462762   5.197157   5.018883   4.521496   1.092933
    32  H    5.138921   5.580194   5.936808   5.197485   1.092230
    33  H    5.292495   5.944348   6.023099   5.027175   1.093058
    34  O   11.454210  10.971930  12.461056  11.613467   9.713601
    35  C    9.752109   8.993528  10.532979  10.272246   9.758616
    36  C   11.704548  11.037002  12.603174  12.061974  10.870137
    37  C   12.026236  11.285606  12.856290  12.469354  11.611269
    38  H   11.558517  10.733055  12.259643  12.134975  11.848077
    39  C   11.113695  10.331422  11.880688  11.633066  11.100496
    40  H   13.077884  12.319267  13.895384  13.527213  12.685729
    41  H    9.107031   8.312927   9.820778   9.699855   9.507548
    42  H   12.535721  11.900823  13.465223  12.839888  11.440081
                   31         32         33         34         35
    31  H    0.000000
    32  H    1.769652   0.000000
    33  H    1.771381   1.772151   0.000000
    34  O   10.542420   8.831362  10.050474   0.000000
    35  C   10.292115   9.004258  10.530748   4.814206   0.000000
    36  C   11.558144  10.009111  11.442513   2.825754   2.790284
    37  C   12.227370  10.776647  12.271612   4.211939   2.418435
    38  H   12.332753  11.093709  12.646765   6.096147   2.141754
    39  C   11.641663  10.318019  11.850732   5.033963   1.386215
    40  H   13.299164  11.840907  13.338706   4.865818   3.398744
    41  H    9.962516   8.816599  10.352229   5.764005   1.082260
    42  H   12.171091  10.556592  11.936721   2.486642   3.873025
                   36         37         38         39         40
    36  C    0.000000
    37  C    1.386701   0.000000
    38  H    3.393994   2.158409   0.000000
    39  C    2.412358   1.401970   1.084060   0.000000
    40  H    2.146510   1.083871   2.486497   2.159449   0.000000
    41  H    3.872527   3.402931   2.473939   2.148984   4.297294
    42  H    1.082876   2.154443   4.299839   3.402029   2.488560
                   41         42
    41  H    0.000000
    42  H    4.955225   0.000000
 Symmetry turned off by external request.
 Stoichiometry    C20H18N2O2
 Framework group  C1[X(C20H18N2O2)]
 Deg. of freedom   120
 Full point group                 C1      NOp   1
 Rotational constants (GHZ):      0.6520028      0.1066515      0.0932485
 Leave Link  202 at Mon Feb 17 09:42:52 2020, MaxMem=  6710886400 cpu:         0.1
 (Enter /opt/sys/apps/gaussian09/D.01/g09/l301.exe)
 Standard basis: 6-311++G(d,p) (5D, 7F)
 Ernie: Thresh=  0.10000D-02 Tol=  0.10000D-05 Strict=F.
   654 basis functions,  1026 primitive gaussians,   678 cartesian basis functions
    84 alpha electrons       84 beta electrons
       nuclear repulsion energy      1894.3344844214 Hartrees.
 IExCor=20419 DFT=T Ex+Corr=CAM-B3LYP ExCW=0 ScaHFX=  1.000000
 ScaDFX=  1.000000  1.000000  1.000000  0.810000 ScalE2=  1.000000  1.000000
 IRadAn=      0 IRanWt=     -1 IRanGd=            0 ICorTp=0 IEmpDi=131
  HFx wShort=  0.000000 wLong=  0.330000 cFull=  0.190000 cShort=  0.000000 cLong=  0.810000
  DFx wShort=  0.000000 wLong=  0.330000 cFull=  0.190000 cShort=  0.000000 cLong=  0.810000
 NAtoms=   42 NActive=   42 NUniq=   42 SFac= 1.00D+00 NAtFMM=   60 NAOKFM=F Big=F
 Integral buffers will be    131072 words long.
 Raffenetti 1 integral format.
 Two-electron integral symmetry is turned off.
 R6Disp:  Grimme-D3 Dispersion energy=       -0.0278624249 Hartrees.
 Nuclear repulsion after empirical dispersion term =     1894.3066219966 Hartrees.
 ------------------------------------------------------------------------------
 Polarizable Continuum Model (PCM)
 =================================
 Model                : C-PCM.
 Atomic radii         : UFF (Universal Force Field).
 Polarization charges : Total charges.
 Charge compensation  : None.
 Solution method      : On-the-fly selection.
 Cavity type          : Scaled VdW (van der Waals Surface) (Alpha=1.100).
 Cavity algorithm     : GePol (No added spheres)
                        Default sphere list used, NSphG=   42.
                        Lebedev-Laikov grids with approx.  5.0 points / Ang**2.
                        Smoothing algorithm: Karplus/York (Gamma=1.0000).
                        Polarization charges: spherical gaussians, with
                                              point-specific exponents (IZeta= 3).
                        Self-potential: point-specific (ISelfS= 7).
                        Self-field    : sphere-specific E.n sum rule (ISelfD= 2).
 1st derivatives      : Analytical E(r).r(x)/FMM algorithm (CHGder, D1EAlg=3).
                        Cavity 1st derivative terms included.
 Solvent              : Ethanol, Eps=  24.852000 Eps(inf)=   1.852593
 ------------------------------------------------------------------------------
 GePol: Number of generator spheres                  =      42
 GePol: Total number of spheres                      =      42
 GePol: Number of exposed spheres                    =      42 (100.00%)
 GePol: Number of points                             =    3067
 GePol: Average weight of points                     =       0.13
 GePol: Minimum weight of points                     =   0.26D-10
 GePol: Maximum weight of points                     =    0.20577
 GePol: Number of points with low weight             =     182
 GePol: Fraction of low-weight points (<1% of avg)   =       5.93%
 GePol: Cavity surface area                          =    392.402 Ang**2
 GePol: Cavity volume                                =    437.212 Ang**3
 Leave Link  301 at Mon Feb 17 09:42:52 2020, MaxMem=  6710886400 cpu:         2.0
 (Enter /opt/sys/apps/gaussian09/D.01/g09/l302.exe)
 NPDir=0 NMtPBC=     1 NCelOv=     1 NCel=       1 NClECP=     1 NCelD=      1
         NCelK=      1 NCelE2=     1 NClLst=     1 CellRange=     0.0.
 One-electron integrals computed using PRISM.
 NBasis=   654 RedAO= T EigKep=  1.10D-06  NBF=   654
 NBsUse=   646 1.00D-06 EigRej=  6.65D-07 NBFU=   646
 Precomputing XC quadrature grid using
 IXCGrd= 4 IRadAn=           0 IRanWt=          -1 IRanGd=           0 AccXCQ= 0.00D+00.
 Generated NRdTot=       0 NPtTot=           0 NUsed=           0 NTot=          32
 NSgBfM=   657   657   657   658   658 MxSgAt=    42 MxSgA2=    42.
 Leave Link  302 at Mon Feb 17 09:42:53 2020, MaxMem=  6710886400 cpu:        23.1
 (Enter /opt/sys/apps/gaussian09/D.01/g09/l308.exe)
 Leave Link  308 at Mon Feb 17 09:42:53 2020, MaxMem=  6710886400 cpu:         2.8
 (Enter /opt/sys/apps/gaussian09/D.01/g09/l303.exe)
 DipDrv:  MaxL=1.
 Leave Link  303 at Mon Feb 17 09:42:53 2020, MaxMem=  6710886400 cpu:         2.7
 (Enter /opt/sys/apps/gaussian09/D.01/g09/l401.exe)
 ExpMin= 3.60D-02 ExpMax= 8.59D+03 ExpMxC= 1.30D+03 IAcc=3 IRadAn=         5 AccDes= 0.00D+00
 Harris functional with IExCor=20419 and IRadAn=       5 diagonalized for initial guess.
 HarFok:  IExCor=20419 AccDes= 0.00D+00 IRadAn=         5 IDoV= 1 UseB2=F ITyADJ=14
 ICtDFT=  3500011 ScaDFX=  1.000000  1.000000  1.000000  1.000000
 FoFCou: FMM=F IPFlag=           0 FMFlag=      100000 FMFlg1=           0
         NFxFlg=           0 DoJE=T BraDBF=F KetDBF=T FulRan=T
         wScrn=  0.000000 ICntrl=     500 IOpCl=  0 I1Cent=   200000004 NGrid=           0
         NMat0=    1 NMatS0=      1 NMatT0=    0 NMatD0=    1 NMtDS0=    0 NMtDT0=    0
 Symmetry not used in FoFCou.
 Harris En= -981.845712719293    
 JPrj=0 DoOrth=F DoCkMO=F.
 Leave Link  401 at Mon Feb 17 09:42:57 2020, MaxMem=  6710886400 cpu:        72.7
 (Enter /opt/sys/apps/gaussian09/D.01/g09/l502.exe)
 Closed shell SCF:
 Using DIIS extrapolation, IDIIS=  1040.
 Two-electron integral symmetry not used.
 IVT=     1418026 IEndB=     1418026 NGot=  6710886400 MDV=  6709945377
 LenX=  6709945377 LenY=  6709485015
 Requested convergence on RMS density matrix=1.00D-08 within 128 cycles.
 Requested convergence on MAX density matrix=1.00D-06.
 Requested convergence on             energy=1.00D-06.
 No special actions if energy rises.
 Fock matrices will be formed incrementally for  20 cycles.

 Cycle   1  Pass 1  IDiag  1:
 FoFJK:  IHMeth= 1 ICntrl=       0 DoSepK=T KAlg= 0 I1Cent=   0 FoldK=F
 IRaf=         1 NMat=   1 IRICut=       1 DoRegI=T DoRafI=F ISym2E= 0.
 FoFCou: FMM=F IPFlag=           0 FMFlag=      100000 FMFlg1=           0
         NFxFlg=           0 DoJE=T BraDBF=F KetDBF=F FulRan=T
         wScrn=  0.000000 ICntrl=     500 IOpCl=  0 I1Cent=           0 NGrid=           0
         NMat0=    1 NMatS0=      1 NMatT0=    0 NMatD0=    1 NMtDS0=    0 NMtDT0=    0
 Symmetry not used in FoFCou.
 Inv3:  Mode=1 IEnd=    28219467.
 Iteration    1 A*A^-1 deviation from unit magnitude is 6.11D-15 for   3043.
 Iteration    1 A*A^-1 deviation from orthogonality  is 4.65D-15 for   3055   2934.
 Iteration    1 A^-1*A deviation from unit magnitude is 6.33D-15 for   3043.
 Iteration    1 A^-1*A deviation from orthogonality  is 2.34D-15 for   3023   2920.
 E= -1031.50140392754    
 DIIS: error= 4.32D-02 at cycle   1 NSaved=   1.
 NSaved= 1 IEnMin= 1 EnMin= -1031.50140392754     IErMin= 1 ErrMin= 4.32D-02
 ErrMax= 4.32D-02  0.00D+00 EMaxC= 1.00D-01 BMatC= 1.88D+00 BMatP= 1.88D+00
 IDIUse=3 WtCom= 5.68D-01 WtEn= 4.32D-01
 Coeff-Com:  0.100D+01
 Coeff-En:   0.100D+01
 Coeff:      0.100D+01
 Gap=     0.235 Goal=   None    Shift=    0.000
 GapD=    0.235 DampG=1.000 DampE=0.500 DampFc=0.5000 IDamp=-1.
 Damping current iteration by 5.00D-01
 RMSDP=1.12D-02 MaxDP=1.16D+00              OVMax= 1.80D-01

 Cycle   2  Pass 1  IDiag  1:
 RMSU=  5.58D-03    CP:  9.93D-01
 E= -1031.69247022014     Delta-E=       -0.191066292608 Rises=F Damp=T
 DIIS: error= 1.97D-02 at cycle   2 NSaved=   2.
 NSaved= 2 IEnMin= 2 EnMin= -1031.69247022014     IErMin= 2 ErrMin= 1.97D-02
 ErrMax= 1.97D-02  0.00D+00 EMaxC= 1.00D-01 BMatC= 3.70D-01 BMatP= 1.88D+00
 IDIUse=3 WtCom= 8.03D-01 WtEn= 1.97D-01
 Coeff-Com: -0.492D+00 0.149D+01
 Coeff-En:   0.000D+00 0.100D+01
 Coeff:     -0.395D+00 0.139D+01
 Gap=     0.258 Goal=   None    Shift=    0.000
 RMSDP=6.18D-03 MaxDP=6.58D-01 DE=-1.91D-01 OVMax= 1.74D-01

 Cycle   3  Pass 1  IDiag  1:
 RMSU=  4.68D-03    CP:  9.03D-01  1.41D+00
 E= -1031.83375309921     Delta-E=       -0.141282879061 Rises=F Damp=F
 DIIS: error= 1.69D-02 at cycle   3 NSaved=   3.
 NSaved= 3 IEnMin= 3 EnMin= -1031.83375309921     IErMin= 3 ErrMin= 1.69D-02
 ErrMax= 1.69D-02  0.00D+00 EMaxC= 1.00D-01 BMatC= 9.63D-02 BMatP= 3.70D-01
 IDIUse=3 WtCom= 8.31D-01 WtEn= 1.69D-01
 Coeff-Com: -0.312D+00 0.676D+00 0.636D+00
 Coeff-En:   0.000D+00 0.000D+00 0.100D+01
 Coeff:     -0.260D+00 0.562D+00 0.697D+00
 Gap=     0.234 Goal=   None    Shift=    0.000
 RMSDP=2.68D-03 MaxDP=2.17D-01 DE=-1.41D-01 OVMax= 6.62D-02

 Cycle   4  Pass 1  IDiag  1:
 RMSU=  1.71D-03    CP:  8.71D-01  1.65D+00  7.73D-01
 E= -1031.89961283883     Delta-E=       -0.065859739622 Rises=F Damp=F
 DIIS: error= 5.28D-03 at cycle   4 NSaved=   4.
 NSaved= 4 IEnMin= 4 EnMin= -1031.89961283883     IErMin= 4 ErrMin= 5.28D-03
 ErrMax= 5.28D-03  0.00D+00 EMaxC= 1.00D-01 BMatC= 8.17D-03 BMatP= 9.63D-02
 IDIUse=3 WtCom= 9.47D-01 WtEn= 5.28D-02
 Coeff-Com: -0.103D+00 0.221D+00 0.345D+00 0.537D+00
 Coeff-En:   0.000D+00 0.000D+00 0.000D+00 0.100D+01
 Coeff:     -0.978D-01 0.209D+00 0.327D+00 0.562D+00
 Gap=     0.232 Goal=   None    Shift=    0.000
 RMSDP=5.36D-04 MaxDP=4.59D-02 DE=-6.59D-02 OVMax= 1.25D-02

 Cycle   5  Pass 1  IDiag  1:
 RMSU=  3.51D-04    CP:  8.73D-01  1.65D+00  8.23D-01  8.13D-01
 E= -1031.90529160542     Delta-E=       -0.005678766597 Rises=F Damp=F
 DIIS: error= 5.55D-04 at cycle   5 NSaved=   5.
 NSaved= 5 IEnMin= 5 EnMin= -1031.90529160542     IErMin= 5 ErrMin= 5.55D-04
 ErrMax= 5.55D-04  0.00D+00 EMaxC= 1.00D-01 BMatC= 1.29D-04 BMatP= 8.17D-03
 IDIUse=3 WtCom= 9.94D-01 WtEn= 5.55D-03
 Coeff-Com:  0.235D-01-0.521D-01-0.235D-01 0.992D-01 0.953D+00
 Coeff-En:   0.000D+00 0.000D+00 0.000D+00 0.000D+00 0.100D+01
 Coeff:      0.234D-01-0.518D-01-0.233D-01 0.986D-01 0.953D+00
 Gap=     0.235 Goal=   None    Shift=    0.000
 RMSDP=4.94D-04 MaxDP=4.65D-02 DE=-5.68D-03 OVMax= 1.42D-02

 Cycle   6  Pass 1  IDiag  1:
 RMSU=  1.65D-04    CP:  8.63D-01  1.66D+00  8.45D-01  9.52D-01  1.28D+00
 E= -1031.90568061385     Delta-E=       -0.000389008423 Rises=F Damp=F
 DIIS: error= 3.58D-04 at cycle   6 NSaved=   6.
 NSaved= 6 IEnMin= 6 EnMin= -1031.90568061385     IErMin= 6 ErrMin= 3.58D-04
 ErrMax= 3.58D-04  0.00D+00 EMaxC= 1.00D-01 BMatC= 3.97D-05 BMatP= 1.29D-04
 IDIUse=3 WtCom= 9.96D-01 WtEn= 3.58D-03
 Coeff-Com:  0.228D-01-0.492D-01-0.534D-01-0.376D-01 0.370D+00 0.747D+00
 Coeff-En:   0.000D+00 0.000D+00 0.000D+00 0.000D+00 0.000D+00 0.100D+01
 Coeff:      0.228D-01-0.491D-01-0.532D-01-0.375D-01 0.369D+00 0.748D+00
 Gap=     0.236 Goal=   None    Shift=    0.000
 RMSDP=1.41D-04 MaxDP=1.27D-02 DE=-3.89D-04 OVMax= 8.63D-03

 Cycle   7  Pass 1  IDiag  1:
 RMSU=  6.07D-05    CP:  8.62D-01  1.66D+00  8.49D-01  1.00D+00  1.43D+00
                    CP:  1.04D+00
 E= -1031.90580217429     Delta-E=       -0.000121560442 Rises=F Damp=F
 DIIS: error= 2.03D-04 at cycle   7 NSaved=   7.
 NSaved= 7 IEnMin= 7 EnMin= -1031.90580217429     IErMin= 7 ErrMin= 2.03D-04
 ErrMax= 2.03D-04  0.00D+00 EMaxC= 1.00D-01 BMatC= 1.10D-05 BMatP= 3.97D-05
 IDIUse=3 WtCom= 9.98D-01 WtEn= 2.03D-03
 Coeff-Com:  0.442D-03-0.563D-03-0.694D-02-0.328D-01-0.141D+00 0.247D+00
 Coeff-Com:  0.933D+00
 Coeff-En:   0.000D+00 0.000D+00 0.000D+00 0.000D+00 0.000D+00 0.000D+00
 Coeff-En:   0.100D+01
 Coeff:      0.441D-03-0.562D-03-0.692D-02-0.328D-01-0.141D+00 0.247D+00
 Coeff:      0.933D+00
 Gap=     0.236 Goal=   None    Shift=    0.000
 RMSDP=8.82D-05 MaxDP=5.53D-03 DE=-1.22D-04 OVMax= 7.51D-03

 Cycle   8  Pass 1  IDiag  1:
 RMSU=  3.40D-05    CP:  8.61D-01  1.67D+00  8.51D-01  1.03D+00  1.55D+00
                    CP:  1.22D+00  1.47D+00
 E= -1031.90585899503     Delta-E=       -0.000056820743 Rises=F Damp=F
 DIIS: error= 1.26D-04 at cycle   8 NSaved=   8.
 NSaved= 8 IEnMin= 8 EnMin= -1031.90585899503     IErMin= 8 ErrMin= 1.26D-04
 ErrMax= 1.26D-04  0.00D+00 EMaxC= 1.00D-01 BMatC= 2.78D-06 BMatP= 1.10D-05
 IDIUse=3 WtCom= 9.99D-01 WtEn= 1.26D-03
 Coeff-Com: -0.723D-02 0.157D-01 0.169D-01 0.327D-02-0.165D+00-0.135D+00
 Coeff-Com:  0.240D+00 0.103D+01
 Coeff-En:   0.000D+00 0.000D+00 0.000D+00 0.000D+00 0.000D+00 0.000D+00
 Coeff-En:   0.000D+00 0.100D+01
 Coeff:     -0.722D-02 0.157D-01 0.169D-01 0.327D-02-0.165D+00-0.134D+00
 Coeff:      0.239D+00 0.103D+01
 Gap=     0.237 Goal=   None    Shift=    0.000
 RMSDP=5.01D-05 MaxDP=3.13D-03 DE=-5.68D-05 OVMax= 5.86D-03

 Cycle   9  Pass 1  IDiag  1:
 RMSU=  1.63D-05    CP:  8.62D-01  1.67D+00  8.52D-01  1.04D+00  1.61D+00
                    CP:  1.28D+00  1.96D+00  1.57D+00
 E= -1031.90588164552     Delta-E=       -0.000022650489 Rises=F Damp=F
 DIIS: error= 5.80D-05 at cycle   9 NSaved=   9.
 NSaved= 9 IEnMin= 9 EnMin= -1031.90588164552     IErMin= 9 ErrMin= 5.80D-05
 ErrMax= 5.80D-05  0.00D+00 EMaxC= 1.00D-01 BMatC= 9.24D-07 BMatP= 2.78D-06
 IDIUse=1 WtCom= 1.00D+00 WtEn= 0.00D+00
 Coeff-Com: -0.103D-02 0.213D-02 0.517D-02 0.937D-02 0.793D-02-0.958D-01
 Coeff-Com: -0.266D+00 0.312D+00 0.103D+01
 Coeff:     -0.103D-02 0.213D-02 0.517D-02 0.937D-02 0.793D-02-0.958D-01
 Coeff:     -0.266D+00 0.312D+00 0.103D+01
 Gap=     0.237 Goal=   None    Shift=    0.000
 RMSDP=3.39D-05 MaxDP=2.26D-03 DE=-2.27D-05 OVMax= 3.45D-03

 Cycle  10  Pass 1  IDiag  1:
 RMSU=  9.36D-06    CP:  8.62D-01  1.67D+00  8.52D-01  1.05D+00  1.64D+00
                    CP:  1.27D+00  2.28D+00  1.97D+00  1.58D+00
 E= -1031.90588770561     Delta-E=       -0.000006060086 Rises=F Damp=F
 DIIS: error= 2.36D-05 at cycle  10 NSaved=  10.
 NSaved=10 IEnMin=10 EnMin= -1031.90588770561     IErMin=10 ErrMin= 2.36D-05
 ErrMax= 2.36D-05  0.00D+00 EMaxC= 1.00D-01 BMatC= 1.55D-07 BMatP= 9.24D-07
 IDIUse=1 WtCom= 1.00D+00 WtEn= 0.00D+00
 Coeff-Com:  0.161D-02-0.350D-02-0.263D-02 0.195D-02 0.401D-01 0.695D-02
 Coeff-Com: -0.135D+00-0.134D+00 0.301D+00 0.923D+00
 Coeff:      0.161D-02-0.350D-02-0.263D-02 0.195D-02 0.401D-01 0.695D-02
 Coeff:     -0.135D+00-0.134D+00 0.301D+00 0.923D+00
 Gap=     0.237 Goal=   None    Shift=    0.000
 RMSDP=1.25D-05 MaxDP=6.95D-04 DE=-6.06D-06 OVMax= 1.27D-03

 Cycle  11  Pass 1  IDiag  1:
 RMSU=  4.64D-06    CP:  8.62D-01  1.67D+00  8.53D-01  1.05D+00  1.64D+00
                    CP:  1.26D+00  2.38D+00  2.11D+00  1.91D+00  1.36D+00
 E= -1031.90588862586     Delta-E=       -0.000000920254 Rises=F Damp=F
 DIIS: error= 9.47D-06 at cycle  11 NSaved=  11.
 NSaved=11 IEnMin=11 EnMin= -1031.90588862586     IErMin=11 ErrMin= 9.47D-06
 ErrMax= 9.47D-06  0.00D+00 EMaxC= 1.00D-01 BMatC= 2.99D-08 BMatP= 1.55D-07
 IDIUse=1 WtCom= 1.00D+00 WtEn= 0.00D+00
 Coeff-Com:  0.589D-03-0.125D-02-0.149D-02-0.884D-03 0.790D-02 0.218D-01
 Coeff-Com:  0.283D-01-0.107D+00-0.153D+00 0.208D+00 0.998D+00
 Coeff:      0.589D-03-0.125D-02-0.149D-02-0.884D-03 0.790D-02 0.218D-01
 Coeff:      0.283D-01-0.107D+00-0.153D+00 0.208D+00 0.998D+00
 Gap=     0.237 Goal=   None    Shift=    0.000
 RMSDP=5.98D-06 MaxDP=5.81D-04 DE=-9.20D-07 OVMax= 5.06D-04

 Cycle  12  Pass 1  IDiag  1:
 RMSU=  1.87D-06    CP:  8.62D-01  1.67D+00  8.53D-01  1.06D+00  1.64D+00
                    CP:  1.26D+00  2.42D+00  2.14D+00  2.07D+00  1.50D+00
                    CP:  1.46D+00
 E= -1031.90588878384     Delta-E=       -0.000000157978 Rises=F Damp=F
 DIIS: error= 4.43D-06 at cycle  12 NSaved=  12.
 NSaved=12 IEnMin=12 EnMin= -1031.90588878384     IErMin=12 ErrMin= 4.43D-06
 ErrMax= 4.43D-06  0.00D+00 EMaxC= 1.00D-01 BMatC= 6.23D-09 BMatP= 2.99D-08
 IDIUse=1 WtCom= 1.00D+00 WtEn= 0.00D+00
 Coeff-Com: -0.648D-04 0.148D-03-0.332D-04-0.585D-03-0.451D-02 0.616D-02
 Coeff-Com:  0.355D-01-0.173D-01-0.110D+00-0.850D-01 0.375D+00 0.801D+00
 Coeff:     -0.648D-04 0.148D-03-0.332D-04-0.585D-03-0.451D-02 0.616D-02
 Coeff:      0.355D-01-0.173D-01-0.110D+00-0.850D-01 0.375D+00 0.801D+00
 Gap=     0.237 Goal=   None    Shift=    0.000
 RMSDP=1.53D-06 MaxDP=1.40D-04 DE=-1.58D-07 OVMax= 1.37D-04

 Cycle  13  Pass 1  IDiag  1:
 RMSU=  8.74D-07    CP:  8.62D-01  1.67D+00  8.53D-01  1.06D+00  1.64D+00
                    CP:  1.26D+00  2.43D+00  2.15D+00  2.10D+00  1.57D+00
                    CP:  1.52D+00  1.12D+00
 E= -1031.90588880289     Delta-E=       -0.000000019055 Rises=F Damp=F
 DIIS: error= 1.44D-06 at cycle  13 NSaved=  13.
 NSaved=13 IEnMin=13 EnMin= -1031.90588880289     IErMin=13 ErrMin= 1.44D-06
 ErrMax= 1.44D-06  0.00D+00 EMaxC= 1.00D-01 BMatC= 6.98D-10 BMatP= 6.23D-09
 IDIUse=1 WtCom= 1.00D+00 WtEn= 0.00D+00
 Coeff-Com: -0.787D-04 0.169D-03 0.189D-03-0.327D-04-0.187D-02-0.170D-02
 Coeff-Com:  0.296D-02 0.126D-01-0.992D-03-0.455D-01-0.735D-01 0.136D+00
 Coeff-Com:  0.972D+00
 Coeff:     -0.787D-04 0.169D-03 0.189D-03-0.327D-04-0.187D-02-0.170D-02
 Coeff:      0.296D-02 0.126D-01-0.992D-03-0.455D-01-0.735D-01 0.136D+00
 Coeff:      0.972D+00
 Gap=     0.237 Goal=   None    Shift=    0.000
 RMSDP=7.59D-07 MaxDP=6.07D-05 DE=-1.91D-08 OVMax= 4.19D-05

 Cycle  14  Pass 1  IDiag  1:
 RMSU=  2.58D-07    CP:  8.62D-01  1.67D+00  8.53D-01  1.06D+00  1.64D+00
                    CP:  1.26D+00  2.43D+00  2.14D+00  2.10D+00  1.57D+00
                    CP:  1.56D+00  1.24D+00  1.20D+00
 E= -1031.90588880550     Delta-E=       -0.000000002603 Rises=F Damp=F
 DIIS: error= 6.89D-07 at cycle  14 NSaved=  14.
 NSaved=14 IEnMin=14 EnMin= -1031.90588880550     IErMin=14 ErrMin= 6.89D-07
 ErrMax= 6.89D-07  0.00D+00 EMaxC= 1.00D-01 BMatC= 1.51D-10 BMatP= 6.98D-10
 IDIUse=1 WtCom= 1.00D+00 WtEn= 0.00D+00
 Coeff-Com: -0.282D-05 0.519D-05 0.406D-04 0.597D-04 0.243D-03-0.145D-02
 Coeff-Com: -0.508D-02 0.610D-02 0.181D-01 0.917D-03-0.768D-01-0.970D-01
 Coeff-Com:  0.313D+00 0.842D+00
 Coeff:     -0.282D-05 0.519D-05 0.406D-04 0.597D-04 0.243D-03-0.145D-02
 Coeff:     -0.508D-02 0.610D-02 0.181D-01 0.917D-03-0.768D-01-0.970D-01
 Coeff:      0.313D+00 0.842D+00
 Gap=     0.237 Goal=   None    Shift=    0.000
 RMSDP=2.26D-07 MaxDP=1.86D-05 DE=-2.60D-09 OVMax= 1.13D-05

 Cycle  15  Pass 1  IDiag  1:
 RMSU=  1.12D-07    CP:  8.62D-01  1.67D+00  8.53D-01  1.06D+00  1.64D+00
                    CP:  1.26D+00  2.43D+00  2.14D+00  2.10D+00  1.57D+00
                    CP:  1.57D+00  1.25D+00  1.29D+00  1.21D+00
 E= -1031.90588880598     Delta-E=       -0.000000000486 Rises=F Damp=F
 DIIS: error= 3.17D-07 at cycle  15 NSaved=  15.
 NSaved=15 IEnMin=15 EnMin= -1031.90588880598     IErMin=15 ErrMin= 3.17D-07
 ErrMax= 3.17D-07  0.00D+00 EMaxC= 1.00D-01 BMatC= 2.19D-11 BMatP= 1.51D-10
 IDIUse=1 WtCom= 1.00D+00 WtEn= 0.00D+00
 Coeff-Com:  0.627D-05-0.137D-04-0.129D-04 0.264D-04 0.275D-03 0.542D-04
 Coeff-Com: -0.924D-03-0.128D-02 0.284D-02 0.589D-02 0.413D-02-0.461D-01
 Coeff-Com: -0.127D+00 0.116D+00 0.105D+01
 Coeff:      0.627D-05-0.137D-04-0.129D-04 0.264D-04 0.275D-03 0.542D-04
 Coeff:     -0.924D-03-0.128D-02 0.284D-02 0.589D-02 0.413D-02-0.461D-01
 Coeff:     -0.127D+00 0.116D+00 0.105D+01
 Gap=     0.237 Goal=   None    Shift=    0.000
 RMSDP=1.33D-07 MaxDP=1.50D-05 DE=-4.86D-10 OVMax= 6.06D-06

 Cycle  16  Pass 1  IDiag  1:
 RMSU=  5.60D-08    CP:  8.62D-01  1.67D+00  8.53D-01  1.06D+00  1.64D+00
                    CP:  1.26D+00  2.43D+00  2.14D+00  2.10D+00  1.57D+00
                    CP:  1.57D+00  1.25D+00  1.32D+00  1.34D+00  1.28D+00
 E= -1031.90588880597     Delta-E=        0.000000000010 Rises=F Damp=F
 DIIS: error= 1.73D-07 at cycle  16 NSaved=  16.
 NSaved=16 IEnMin=15 EnMin= -1031.90588880598     IErMin=16 ErrMin= 1.73D-07
 ErrMax= 1.73D-07  0.00D+00 EMaxC= 1.00D-01 BMatC= 4.07D-12 BMatP= 2.19D-11
 IDIUse=1 WtCom= 1.00D+00 WtEn= 0.00D+00
 Coeff-Com:  0.197D-05-0.422D-05-0.897D-05 0.551D-06 0.519D-04 0.194D-03
 Coeff-Com:  0.332D-03-0.111D-02-0.131D-02 0.150D-02 0.111D-01-0.374D-03
 Coeff-Com: -0.579D-01-0.102D+00 0.234D+00 0.916D+00
 Coeff:      0.197D-05-0.422D-05-0.897D-05 0.551D-06 0.519D-04 0.194D-03
 Coeff:      0.332D-03-0.111D-02-0.131D-02 0.150D-02 0.111D-01-0.374D-03
 Coeff:     -0.579D-01-0.102D+00 0.234D+00 0.916D+00
 Gap=     0.237 Goal=   None    Shift=    0.000
 RMSDP=5.39D-08 MaxDP=5.72D-06 DE= 1.05D-11 OVMax= 1.97D-06

 Cycle  17  Pass 1  IDiag  1:
 RMSU=  2.01D-08    CP:  8.62D-01  1.67D+00  8.53D-01  1.06D+00  1.64D+00
                    CP:  1.26D+00  2.43D+00  2.14D+00  2.10D+00  1.57D+00
                    CP:  1.57D+00  1.23D+00  1.31D+00  1.39D+00  1.45D+00
                    CP:  1.07D+00
 E= -1031.90588880617     Delta-E=       -0.000000000202 Rises=F Damp=F
 DIIS: error= 5.30D-08 at cycle  17 NSaved=  17.
 NSaved=17 IEnMin=17 EnMin= -1031.90588880617     IErMin=17 ErrMin= 5.30D-08
 ErrMax= 5.30D-08  0.00D+00 EMaxC= 1.00D-01 BMatC= 1.11D-12 BMatP= 4.07D-12
 IDIUse=1 WtCom= 1.00D+00 WtEn= 0.00D+00
 Coeff-Com: -0.983D-06 0.217D-05-0.773D-06-0.761D-05-0.476D-04 0.665D-04
 Coeff-Com:  0.372D-03-0.146D-03-0.132D-02-0.105D-02 0.342D-02 0.977D-02
 Coeff-Com:  0.101D-01-0.770D-01-0.139D+00 0.364D+00 0.831D+00
 Coeff:     -0.983D-06 0.217D-05-0.773D-06-0.761D-05-0.476D-04 0.665D-04
 Coeff:      0.372D-03-0.146D-03-0.132D-02-0.105D-02 0.342D-02 0.977D-02
 Coeff:      0.101D-01-0.770D-01-0.139D+00 0.364D+00 0.831D+00
 Gap=     0.237 Goal=   None    Shift=    0.000
 RMSDP=2.47D-08 MaxDP=1.87D-06 DE=-2.02D-10 OVMax= 1.13D-06

 Cycle  18  Pass 1  IDiag  1:
 RMSU=  7.53D-09    CP:  8.62D-01  1.67D+00  8.53D-01  1.06D+00  1.64D+00
                    CP:  1.26D+00  2.43D+00  2.14D+00  2.10D+00  1.57D+00
                    CP:  1.56D+00  1.23D+00  1.32D+00  1.39D+00  1.51D+00
                    CP:  1.14D+00  1.32D+00
 E= -1031.90588880598     Delta-E=        0.000000000193 Rises=F Damp=F
 DIIS: error= 2.38D-08 at cycle  18 NSaved=  18.
 NSaved=18 IEnMin=17 EnMin= -1031.90588880617     IErMin=18 ErrMin= 2.38D-08
 ErrMax= 2.38D-08  0.00D+00 EMaxC= 1.00D-01 BMatC= 1.15D-13 BMatP= 1.11D-12
 IDIUse=1 WtCom= 1.00D+00 WtEn= 0.00D+00
 Coeff-Com: -0.306D-06 0.648D-06 0.575D-06-0.254D-05-0.126D-04-0.139D-04
 Coeff-Com:  0.236D-04 0.150D-03-0.826D-04-0.369D-03-0.769D-03 0.220D-02
 Coeff-Com:  0.129D-01-0.774D-02-0.680D-01-0.478D-01 0.197D+00 0.913D+00
 Coeff:     -0.306D-06 0.648D-06 0.575D-06-0.254D-05-0.126D-04-0.139D-04
 Coeff:      0.236D-04 0.150D-03-0.826D-04-0.369D-03-0.769D-03 0.220D-02
 Coeff:      0.129D-01-0.774D-02-0.680D-01-0.478D-01 0.197D+00 0.913D+00
 Gap=     0.237 Goal=   None    Shift=    0.000
 RMSDP=6.47D-09 MaxDP=4.84D-07 DE= 1.93D-10 OVMax= 3.54D-07

 Error on total polarization charges =  0.02088
 SCF Done:  E(RCAM-B3LYP) =  -1031.90588881     A.U. after   18 cycles
            NFock= 18  Conv=0.65D-08     -V/T= 2.0040
 KE= 1.027775168639D+03 PE=-6.190686250701D+03 EE= 2.236698571260D+03
 Leave Link  502 at Mon Feb 17 09:46:48 2020, MaxMem=  6710886400 cpu:      5479.8
 (Enter /opt/sys/apps/gaussian09/D.01/g09/l801.exe)
 DoSCS=F DFT=T ScalE2(SS,OS)=  1.000000  1.000000
 ExpMin= 3.60D-02 ExpMax= 8.59D+03 ExpMxC= 1.30D+03 IAcc=3 IRadAn=         5 AccDes= 0.00D+00
 HarFok:  IExCor=  205 AccDes= 0.00D+00 IRadAn=         5 IDoV=-2 UseB2=F ITyADJ=14
 ICtDFT= 12500011 ScaDFX=  1.000000  1.000000  1.000000  1.000000
 Largest valence mixing into a core orbital is  4.86D-05
 Largest core mixing into a valence orbital is  1.09D-05
 Range of M.O.s used for correlation:    25   646
 NBasis=   654 NAE=    84 NBE=    84 NFC=    24 NFV=     0
 NROrb=    622 NOA=    60 NOB=    60 NVA=   562 NVB=   562

 **** Warning!!: The largest alpha MO coefficient is  0.14835886D+03

 Leave Link  801 at Mon Feb 17 09:46:48 2020, MaxMem=  6710886400 cpu:         5.1
 (Enter /opt/sys/apps/gaussian09/D.01/g09/l914.exe)
 RHF ground state
 MDV=  6710886400 DFT=T DoStab=F Mixed=T DoRPA=T DoScal=F NonHer=T
 Would need an additional        132787700000 words for in-memory AO integral storage.
 NEqPCM:  Using non-equilibrium solvation (IEInf=1, Eps=  24.8520, EpsInf=   1.8526)
 Inv3:  Mode=1 IEnd=    28219467.
 Iteration    1 A*A^-1 deviation from unit magnitude is 6.11D-15 for   3043.
 Iteration    1 A*A^-1 deviation from orthogonality  is 4.65D-15 for   3055   2934.
 Iteration    1 A^-1*A deviation from unit magnitude is 6.33D-15 for   3043.
 Iteration    1 A^-1*A deviation from orthogonality  is 2.34D-15 for   3023   2920.
 Making orbital integer symmetry assigments:
    40 initial guesses have been made.
 Convergence on wavefunction:    0.000001000000000
 Davidson Disk Diagonalization:  ConvIn= 1.00D-06 SkipCon=T Conv= 1.00D-06.
 Max sub-space:   200 roots to seek:    40 dimension of matrix:        67440
 Iteration     1 Dimension    40 NMult     0 NNew     40
 CISAX will form    40 AO SS matrices at one time.
 NMat=    40 NSing=    40 JSym2X= 0.
 FoFJK:  IHMeth= 1 ICntrl=       0 DoSepK=T KAlg= 0 I1Cent=   0 FoldK=F
 IRaf=         1 NMat=  80 IRICut=       1 DoRegI=T DoRafI=F ISym2E= 0.
 New state      3 was old state     23
 New state      4 was old state     14
 New state      5 was old state      3
 New state      6 was old state     16
 New state      7 was old state      6
 New state      8 was old state      4
 New state      9 was old state     13
 New state     10 was old state     11
 Excitation Energies [eV] at current iteration:
 Root      1 :     3.365274767533716
 Root      2 :     4.480191617595160
 Root      3 :     4.776038117419170
 Root      4 :     5.094351484473864
 Root      5 :     5.154844743874861
 Root      6 :     5.238087264426130
 Root      7 :     5.329627851100463
 Root      8 :     5.607659113897095
 Root      9 :     5.784750883842088
 Root     10 :     5.936894371845356
 Root     11 :     6.112112329986831
 Root     12 :     6.207191622688793
 Root     13 :     6.275279379851682
 Root     14 :     6.356993801569068
 Root     15 :     6.621302740862959
 Root     16 :     6.637875779062742
 Root     17 :     6.755403508203158
 Root     18 :     6.776061609550144
 Root     19 :     6.871658859973830
 Root     20 :     7.105789642344895
 Root     21 :     7.148630737385529
 Root     22 :     7.207681378069223
 Root     23 :     7.335826167549921
 Root     24 :     7.381435503392504
 Root     25 :     7.475059956895747
 Root     26 :     7.513276008228323
 Root     27 :     7.566238279246486
 Root     28 :     7.681473642837169
 Root     29 :     7.732850708998275
 Root     30 :     7.743254427500561
 Root     31 :     7.766820374362268
 Root     32 :     7.961747882441611
 Root     33 :     8.005032714377371
 Root     34 :     8.060897246855744
 Root     35 :     8.188049273382191
 Root     36 :     8.240312416604427
 Root     37 :     8.291039170440044
 Root     38 :     8.375404770740202
 Root     39 :     8.618610919385409
 Root     40 :     8.667116877578044
 Iteration     2 Dimension    60 NMult    40 NNew     20
 CISAX will form    20 AO SS matrices at one time.
 NMat=    20 NSing=    20 JSym2X= 0.
 Root      1 not converged, maximum delta is    0.044034265698684
 Root      2 not converged, maximum delta is    0.049836709574966
 Root      3 not converged, maximum delta is    0.378378105324803
 Root      4 not converged, maximum delta is    0.421694175744486
 New state      5 was old state      6
 Root      5 not converged, maximum delta is    0.262177437227345
 New state      6 was old state      5
 Root      6 not converged, maximum delta is    0.255030598064726
 Root      7 not converged, maximum delta is    0.358611868409257
 New state      8 was old state      9
 Root      8 not converged, maximum delta is    0.125439271776007
 New state      9 was old state      8
 Root      9 not converged, maximum delta is    0.042717505414067
 Root     10 not converged, maximum delta is    0.101944277575512
 Excitation Energies [eV] at current iteration:
 Root      1 :     2.808300897636039   Change is   -0.556973869897677
 Root      2 :     4.009954688177089   Change is   -0.470236929418072
 Root      3 :     4.144947892879637   Change is   -0.631090224539534
 Root      4 :     4.286027470013386   Change is   -0.808324014460478
 Root      5 :     4.669445325245488   Change is   -0.568641939180642
 Root      6 :     4.806924038453327   Change is   -0.347920705421534
 Root      7 :     4.869178753751305   Change is   -0.460449097349158
 Root      8 :     5.149256708227569   Change is   -0.635494175614519
 Root      9 :     5.347550387941977   Change is   -0.260108725955118
 Root     10 :     5.485067500375973   Change is   -0.451826871469384
 Iteration     3 Dimension    80 NMult    60 NNew     20
 CISAX will form    20 AO SS matrices at one time.
 NMat=    20 NSing=    20 JSym2X= 0.
 Root      1 not converged, maximum delta is    0.009452624077254
 Root      2 not converged, maximum delta is    0.014297766019985
 Root      3 not converged, maximum delta is    0.128778970886006
 Root      4 not converged, maximum delta is    0.134811335137005
 Root      5 not converged, maximum delta is    0.040592721052107
 Root      6 not converged, maximum delta is    0.065109217838472
 Root      7 not converged, maximum delta is    0.102471962985398
 Root      8 not converged, maximum delta is    0.109020004096859
 Root      9 not converged, maximum delta is    0.011798564696218
 Root     10 not converged, maximum delta is    0.119751291441112
 Excitation Energies [eV] at current iteration:
 Root      1 :     2.767487207644471   Change is   -0.040813689991568
 Root      2 :     3.977678092931820   Change is   -0.032276595245269
 Root      3 :     4.034466263759537   Change is   -0.110481629120099
 Root      4 :     4.236771225404201   Change is   -0.049256244609185
 Root      5 :     4.615223317698326   Change is   -0.054222007547163
 Root      6 :     4.699118862027092   Change is   -0.107805176426235
 Root      7 :     4.825976702306531   Change is   -0.043202051444774
 Root      8 :     5.044664590135953   Change is   -0.104592118091616
 Root      9 :     5.335763304231403   Change is   -0.011787083710575
 Root     10 :     5.418921951124522   Change is   -0.066145549251451
 Iteration     4 Dimension   100 NMult    80 NNew     20
 CISAX will form    20 AO SS matrices at one time.
 NMat=    20 NSing=    20 JSym2X= 0.
 Root      1 not converged, maximum delta is    0.005284008082699
 Root      2 not converged, maximum delta is    0.008399779636138
 Root      3 not converged, maximum delta is    0.007134010059215
 Root      4 not converged, maximum delta is    0.005732129541182
 Root      5 not converged, maximum delta is    0.012749067359430
 Root      6 not converged, maximum delta is    0.025462920494931
 Root      7 not converged, maximum delta is    0.027095526502085
 Root      8 not converged, maximum delta is    0.035343527407029
 Root      9 not converged, maximum delta is    0.010191669601815
 Root     10 not converged, maximum delta is    0.100309474783203
 Excitation Energies [eV] at current iteration:
 Root      1 :     2.761347627791101   Change is   -0.006139579853370
 Root      2 :     3.971888482667911   Change is   -0.005789610263909
 Root      3 :     4.027610250341363   Change is   -0.006856013418174
 Root      4 :     4.233535262231126   Change is   -0.003235963173075
 Root      5 :     4.608263171551011   Change is   -0.006960146147315
 Root      6 :     4.683556861180670   Change is   -0.015562000846422
 Root      7 :     4.815554422503204   Change is   -0.010422279803327
 Root      8 :     5.021278227373934   Change is   -0.023386362762020
 Root      9 :     5.334797805817828   Change is   -0.000965498413575
 Root     10 :     5.386495055624567   Change is   -0.032426895499955
 Iteration     5 Dimension   120 NMult   100 NNew     20
 CISAX will form    20 AO SS matrices at one time.
 NMat=    20 NSing=    20 JSym2X= 0.
 Root      1 not converged, maximum delta is    0.001116819193889
 Root      2 not converged, maximum delta is    0.002137196758925
 Root      3 not converged, maximum delta is    0.002526524551426
 Root      4 not converged, maximum delta is    0.001671881228257
 Root      5 not converged, maximum delta is    0.003732222443670
 Root      6 not converged, maximum delta is    0.005004138355442
 Root      7 not converged, maximum delta is    0.006265363980895
 Root      8 not converged, maximum delta is    0.008912462457964
 Root      9 not converged, maximum delta is    0.006235211075124
 Root     10 not converged, maximum delta is    0.049770290536641
 Excitation Energies [eV] at current iteration:
 Root      1 :     2.760906293417375   Change is   -0.000441334373726
 Root      2 :     3.971387059118136   Change is   -0.000501423549775
 Root      3 :     4.027104377512074   Change is   -0.000505872829289
 Root      4 :     4.233235199159279   Change is   -0.000300063071848
 Root      5 :     4.607447582480960   Change is   -0.000815589070051
 Root      6 :     4.681916732869062   Change is   -0.001640128311609
 Root      7 :     4.814036036282717   Change is   -0.001518386220487
 Root      8 :     5.017867795217471   Change is   -0.003410432156462
 Root      9 :     5.334640413419256   Change is   -0.000157392398572
 Root     10 :     5.375964808890472   Change is   -0.010530246734096
 Iteration     6 Dimension   140 NMult   120 NNew     20
 CISAX will form    20 AO SS matrices at one time.
 NMat=    20 NSing=    20 JSym2X= 0.
 Root      1 not converged, maximum delta is    0.000259249151697
 Root      2 not converged, maximum delta is    0.000464108464488
 Root      3 not converged, maximum delta is    0.000515200167304
 Root      4 not converged, maximum delta is    0.000504644158295
 Root      5 not converged, maximum delta is    0.000834081139855
 Root      6 not converged, maximum delta is    0.000857834936430
 Root      7 not converged, maximum delta is    0.001289476502679
 Root      8 not converged, maximum delta is    0.001822509688491
 Root      9 not converged, maximum delta is    0.001601118423639
 Root     10 not converged, maximum delta is    0.012979600415911
 Excitation Energies [eV] at current iteration:
 Root      1 :     2.760881010566293   Change is   -0.000025282851082
 Root      2 :     3.971341763800864   Change is   -0.000045295317273
 Root      3 :     4.027070951613282   Change is   -0.000033425898792
 Root      4 :     4.233210765580645   Change is   -0.000024433578634
 Root      5 :     4.607380874964064   Change is   -0.000066707516896
 Root      6 :     4.681773660883027   Change is   -0.000143071986034
 Root      7 :     4.813887092245769   Change is   -0.000148944036948
 Root      8 :     5.017502094826582   Change is   -0.000365700390890
 Root      9 :     5.334616814540019   Change is   -0.000023598879237
 Root     10 :     5.374430089779660   Change is   -0.001534719110811
 Iteration     7 Dimension   160 NMult   140 NNew     20
 CISAX will form    20 AO SS matrices at one time.
 NMat=    20 NSing=    20 JSym2X= 0.
 Root      1 not converged, maximum delta is    0.000037095376050
 Root      2 not converged, maximum delta is    0.000086050173991
 Root      3 not converged, maximum delta is    0.000074907344342
 Root      4 not converged, maximum delta is    0.000089677354559
 Root      5 not converged, maximum delta is    0.000097765929812
 Root      6 not converged, maximum delta is    0.000151889959406
 Root      7 not converged, maximum delta is    0.000266774745384
 Root      8 not converged, maximum delta is    0.000335723310383
 Root      9 not converged, maximum delta is    0.000397234666506
 Root     10 not converged, maximum delta is    0.003724379133209
 Excitation Energies [eV] at current iteration:
 Root      1 :     2.760879777421382   Change is   -0.000001233144911
 Root      2 :     3.971339170497497   Change is   -0.000002593303366
 Root      3 :     4.027068752843388   Change is   -0.000002198769894
 Root      4 :     4.233208773379773   Change is   -0.000001992200871
 Root      5 :     4.607376477334213   Change is   -0.000004397629851
 Root      6 :     4.681762743064366   Change is   -0.000010917818662
 Root      7 :     4.813874220687564   Change is   -0.000012871558205
 Root      8 :     5.017473761275978   Change is   -0.000028333550604
 Root      9 :     5.334613499785376   Change is   -0.000003314754643
 Root     10 :     5.374255095515086   Change is   -0.000174994264574
 Iteration     8 Dimension   180 NMult   160 NNew     20
 CISAX will form    20 AO SS matrices at one time.
 NMat=    20 NSing=    20 JSym2X= 0.
 Root      1 not converged, maximum delta is    0.000006150409703
 Root      2 not converged, maximum delta is    0.000015191392290
 Root      3 not converged, maximum delta is    0.000018490932421
 Root      4 not converged, maximum delta is    0.000029845670496
 Root      5 not converged, maximum delta is    0.000020513162362
 Root      6 not converged, maximum delta is    0.000058628585890
 Root      7 not converged, maximum delta is    0.000050565518941
 Root      8 not converged, maximum delta is    0.000066242522242
 Root      9 not converged, maximum delta is    0.000065728709338
 Root     10 not converged, maximum delta is    0.000808657650298
 Excitation Energies [eV] at current iteration:
 Root      1 :     2.760879723807692   Change is   -0.000000053613690
 Root      2 :     3.971339026564482   Change is   -0.000000143933015
 Root      3 :     4.027068615862293   Change is   -0.000000136981095
 Root      4 :     4.233208636294276   Change is   -0.000000137085497
 Root      5 :     4.607376227876572   Change is   -0.000000249457641
 Root      6 :     4.681761963146339   Change is   -0.000000779918027
 Root      7 :     4.813873316284360   Change is   -0.000000904403205
 Root      8 :     5.017471859910217   Change is   -0.000001901365761
 Root      9 :     5.334613149881068   Change is   -0.000000349904308
 Root     10 :     5.374235756722674   Change is   -0.000019338792413
 Iteration     9 Dimension   200 NMult   180 NNew     20
 CISAX will form    20 AO SS matrices at one time.
 NMat=    20 NSing=    20 JSym2X= 0.
 Root      1 not converged, maximum delta is    0.000001089393093
 Root      2 not converged, maximum delta is    0.000003997135381
 Root      3 not converged, maximum delta is    0.000005250336638
 Root      4 not converged, maximum delta is    0.000009035441952
 Root      5 not converged, maximum delta is    0.000006168322796
 Root      6 not converged, maximum delta is    0.000016171701449
 Root      7 not converged, maximum delta is    0.000013338564598
 Root      8 not converged, maximum delta is    0.000016304481098
 Root      9 not converged, maximum delta is    0.000017561092766
 Root     10 not converged, maximum delta is    0.000119263003325
 Excitation Energies [eV] at current iteration:
 Root      1 :     2.760879722127322   Change is   -0.000000001680370
 Root      2 :     3.971339020393545   Change is   -0.000000006170937
 Root      3 :     4.027068606680154   Change is   -0.000000009182139
 Root      4 :     4.233208626161773   Change is   -0.000000010132504
 Root      5 :     4.607376213458727   Change is   -0.000000014417844
 Root      6 :     4.681761909507075   Change is   -0.000000053639264
 Root      7 :     4.813873258787267   Change is   -0.000000057497093
 Root      8 :     5.017471725314166   Change is   -0.000000134596051
 Root      9 :     5.334613117540738   Change is   -0.000000032340329
 Root     10 :     5.374233877444675   Change is   -0.000001879277999
 Davidson failed to converge within maximum sub-space dimensions.
  Restart with updated initial guess:
 Iteration     1 Dimension    40 NMult   200 NNew     40
 CISAX will form    40 AO SS matrices at one time.
 NMat=    40 NSing=    40 JSym2X= 0.
 Excitation Energies [eV] at current iteration:
 Root      1 :     2.760879722070421
 Root      2 :     3.971339020193623
 Root      3 :     4.027068606225642
 Root      4 :     4.233208625587145
 Root      5 :     4.607376211999168
 Root      6 :     4.681761906381450
 Root      7 :     4.813873255439007
 Root      8 :     5.017471716221202
 Root      9 :     5.334613121424327
 Root     10 :     5.374233754851460
 Iteration     2 Dimension    60 NMult   240 NNew     20
 CISAX will form    20 AO SS matrices at one time.
 NMat=    20 NSing=    20 JSym2X= 0.
 Root      1 has converged.
 Root      2 has converged.
 Root      3 has converged.
 Root      4 has converged.
 Root      5 not converged, maximum delta is    0.000001186115853
 Root      6 not converged, maximum delta is    0.000001186242011
 Root      7 not converged, maximum delta is    0.000002258933393
 Root      8 not converged, maximum delta is    0.000001876111562
 Root      9 not converged, maximum delta is    0.000001538179352
 Root     10 not converged, maximum delta is    0.000006998786762
 Excitation Energies [eV] at current iteration:
 Root      1 :     2.760879722041181   Change is   -0.000000000029240
 Root      2 :     3.971339020163855   Change is   -0.000000000029767
 Root      3 :     4.027068606159686   Change is   -0.000000000065957
 Root      4 :     4.233208625519739   Change is   -0.000000000067405
 Root      5 :     4.607376211911008   Change is   -0.000000000088160
 Root      6 :     4.681761906064333   Change is   -0.000000000317117
 Root      7 :     4.813873255002155   Change is   -0.000000000436852
 Root      8 :     5.017471715051547   Change is   -0.000000001169655
 Root      9 :     5.334613121048457   Change is   -0.000000000375870
 Root     10 :     5.374233736537589   Change is   -0.000000018313871
 Iteration     3 Dimension    72 NMult   260 NNew     12
 CISAX will form    12 AO SS matrices at one time.
 NMat=    12 NSing=    12 JSym2X= 0.
 Root      1 has converged.
 Root      2 has converged.
 Root      3 has converged.
 Root      4 has converged.
 Root      5 has converged.
 Root      6 has converged.
 Root      7 has converged.
 Root      8 not converged, maximum delta is    0.000001116339419
 Root      9 not converged, maximum delta is    0.000001571369805
 Root     10 not converged, maximum delta is    0.000008543179112
 Excitation Energies [eV] at current iteration:
 Root      1 :     2.760879722092812   Change is    0.000000000051632
 Root      2 :     3.971339020157625   Change is   -0.000000000006230
 Root      3 :     4.027068606159093   Change is   -0.000000000000592
 Root      4 :     4.233208625519389   Change is   -0.000000000000350
 Root      5 :     4.607376211901784   Change is   -0.000000000009225
 Root      6 :     4.681761905993587   Change is   -0.000000000070746
 Root      7 :     4.813873254923071   Change is   -0.000000000079084
 Root      8 :     5.017471714951619   Change is   -0.000000000099928
 Root      9 :     5.334613120963638   Change is   -0.000000000084818
 Root     10 :     5.374233732992066   Change is   -0.000000003545522
 Iteration     4 Dimension    78 NMult   272 NNew      6
 CISAX will form     6 AO SS matrices at one time.
 NMat=     6 NSing=     6 JSym2X= 0.
 Root      1 has converged.
 Root      2 has converged.
 Root      3 has converged.
 Root      4 has converged.
 Root      5 has converged.
 Root      6 has converged.
 Root      7 has converged.
 Root      8 has converged.
 Root      9 not converged, maximum delta is    0.000001112812611
 Root     10 not converged, maximum delta is    0.000007022192379
 Excitation Energies [eV] at current iteration:
 Root      1 :     2.760879722082004   Change is   -0.000000000010809
 Root      2 :     3.971339020149490   Change is   -0.000000000008136
 Root      3 :     4.027068606159134   Change is    0.000000000000041
 Root      4 :     4.233208625520497   Change is    0.000000000001107
 Root      5 :     4.607376211913435   Change is    0.000000000011652
 Root      6 :     4.681761905993622   Change is    0.000000000000035
 Root      7 :     4.813873254913865   Change is   -0.000000000009205
 Root      8 :     5.017471714917442   Change is   -0.000000000034177
 Root      9 :     5.334613120936146   Change is   -0.000000000027492
 Root     10 :     5.374233732001994   Change is   -0.000000000990073
 Iteration     5 Dimension    82 NMult   278 NNew      4
 CISAX will form     4 AO SS matrices at one time.
 NMat=     4 NSing=     4 JSym2X= 0.
 Root      1 has converged.
 Root      2 has converged.
 Root      3 has converged.
 Root      4 has converged.
 Root      5 has converged.
 Root      6 has converged.
 Root      7 has converged.
 Root      8 has converged.
 Root      9 has converged.
 Root     10 not converged, maximum delta is    0.000004332471240
 Excitation Energies [eV] at current iteration:
 Root      1 :     2.760879722074679   Change is   -0.000000000007325
 Root      2 :     3.971339020151394   Change is    0.000000000001905
 Root      3 :     4.027068606158175   Change is   -0.000000000000959
 Root      4 :     4.233208625517662   Change is   -0.000000000002835
 Root      5 :     4.607376211929332   Change is    0.000000000015898
 Root      6 :     4.681761905996924   Change is    0.000000000003301
 Root      7 :     4.813873254914942   Change is    0.000000000001076
 Root      8 :     5.017471714917638   Change is    0.000000000000196
 Root      9 :     5.334613120923911   Change is   -0.000000000012235
 Root     10 :     5.374233731625973   Change is   -0.000000000376021
 Iteration     6 Dimension    84 NMult   282 NNew      2
 CISAX will form     2 AO SS matrices at one time.
 NMat=     2 NSing=     2 JSym2X= 0.
 Root      1 has converged.
 Root      2 has converged.
 Root      3 has converged.
 Root      4 has converged.
 Root      5 has converged.
 Root      6 has converged.
 Root      7 has converged.
 Root      8 has converged.
 Root      9 has converged.
 Root     10 not converged, maximum delta is    0.000001995941769
 Excitation Energies [eV] at current iteration:
 Root      1 :     2.760879722102102   Change is    0.000000000027423
 Root      2 :     3.971339020154913   Change is    0.000000000003519
 Root      3 :     4.027068606158196   Change is    0.000000000000020
 Root      4 :     4.233208625517875   Change is    0.000000000000214
 Root      5 :     4.607376211931474   Change is    0.000000000002141
 Root      6 :     4.681761905994817   Change is   -0.000000000002107
 Root      7 :     4.813873254905002   Change is   -0.000000000009939
 Root      8 :     5.017471714938398   Change is    0.000000000020759
 Root      9 :     5.334613120923464   Change is   -0.000000000000447
 Root     10 :     5.374233731473466   Change is   -0.000000000152507
 Iteration     7 Dimension    86 NMult   284 NNew      2
 CISAX will form     2 AO SS matrices at one time.
 NMat=     2 NSing=     2 JSym2X= 0.
 Root      1 has converged.
 Root      2 has converged.
 Root      3 has converged.
 Root      4 has converged.
 Root      5 has converged.
 Root      6 has converged.
 Root      7 has converged.
 Root      8 has converged.
 Root      9 has converged.
 Root     10 not converged, maximum delta is    0.000001326119052
 Excitation Energies [eV] at current iteration:
 Root      1 :     2.760879722111839   Change is    0.000000000009737
 Root      2 :     3.971339020150090   Change is   -0.000000000004823
 Root      3 :     4.027068606158114   Change is   -0.000000000000082
 Root      4 :     4.233208625517584   Change is   -0.000000000000292
 Root      5 :     4.607376211903603   Change is   -0.000000000027870
 Root      6 :     4.681761905995483   Change is    0.000000000000667
 Root      7 :     4.813873254907017   Change is    0.000000000002015
 Root      8 :     5.017471714930091   Change is   -0.000000000008307
 Root      9 :     5.334613120923402   Change is   -0.000000000000062
 Root     10 :     5.374233731402046   Change is   -0.000000000071420
 Iteration     8 Dimension    88 NMult   286 NNew      2
 CISAX will form     2 AO SS matrices at one time.
 NMat=     2 NSing=     2 JSym2X= 0.
 Root      1 has converged.
 Root      2 has converged.
 Root      3 has converged.
 Root      4 has converged.
 Root      5 has converged.
 Root      6 has converged.
 Root      7 has converged.
 Root      8 has converged.
 Root      9 has converged.
 Root     10 has converged.
 Excitation Energies [eV] at current iteration:
 Root      1 :     2.760879722108802   Change is   -0.000000000003037
 Root      2 :     3.971339020155286   Change is    0.000000000005196
 Root      3 :     4.027068606158339   Change is    0.000000000000224
 Root      4 :     4.233208625517507   Change is   -0.000000000000078
 Root      5 :     4.607376211912738   Change is    0.000000000009135
 Root      6 :     4.681761905997028   Change is    0.000000000001545
 Root      7 :     4.813873254900478   Change is   -0.000000000006540
 Root      8 :     5.017471714938790   Change is    0.000000000008700
 Root      9 :     5.334613120923171   Change is   -0.000000000000231
 Root     10 :     5.374233731364401   Change is   -0.000000000037645
 Convergence achieved on expansion vectors.
 ***********************************************************************
 Excited states from <AA,BB:AA,BB> singles matrix:
 ***********************************************************************
 
 1PDM for each excited state written to RWF  633
 Ground to excited state transition densities written to RWF  633
 Ground to excited state transition electric dipole moments (Au):
       state          X           Y           Z        Dip. S.      Osc.
         1        -4.0848      0.6824      0.0966     17.1607      1.1608
         2        -0.2721     -0.3124     -0.0390      0.1731      0.0168
         3        -0.0012     -0.0062      0.0359      0.0013      0.0001
         4         0.0151      0.0174     -0.1380      0.0196      0.0020
         5         0.0167     -0.7430     -0.1170      0.5660      0.0639
         6        -0.0771      0.4397      0.0580      0.2026      0.0232
         7         0.1280     -0.4373     -0.0521      0.2103      0.0248
         8         0.3248      1.3019      0.1179      1.8144      0.2230
         9         0.0247     -0.1202     -0.0828      0.0219      0.0029
        10        -0.1413      0.0539      0.0157      0.0231      0.0030
 Ground to excited state transition velocity dipole moments (Au):
       state          X           Y           Z        Dip. S.      Osc.
         1         0.4048     -0.0643     -0.0093      0.1681      1.1043
         2         0.0407      0.0403      0.0051      0.0033      0.0151
         3         0.0002      0.0009     -0.0054      0.0000      0.0001
         4        -0.0023     -0.0034      0.0275      0.0008      0.0033
         5        -0.0014      0.1334      0.0208      0.0182      0.0717
         6         0.0102     -0.0747     -0.0100      0.0058      0.0224
         7        -0.0182      0.0891      0.0106      0.0084      0.0316
         8        -0.0663     -0.2388     -0.0215      0.0619      0.2237
         9        -0.0049      0.0225      0.0172      0.0008      0.0028
        10         0.0310     -0.0082     -0.0028      0.0010      0.0035
 Ground to excited state transition magnetic dipole moments (Au):
       state          X           Y           Z
         1        -0.0123     -0.1004      0.8574
         2        -0.0144     -0.0691      0.5687
         3         0.6373     -0.5888     -0.0622
         4        -0.4074      0.0534     -0.0046
         5        -0.0015      0.0143     -0.6756
         6        -0.0075     -0.0820      0.8838
         7         0.0118     -0.0732      0.6133
         8         0.0461     -0.0953      0.7869
         9        -0.0278     -0.3325      0.2818
        10         0.0259      0.1919     -1.7301
 Ground to excited state transition velocity quadrupole moments (Au):
       state          XX          YY          ZZ          XY          XZ          YZ
         1        -0.4364     -0.2497      0.0219      0.2000      0.0303     -0.0590
         2         0.6182      0.3960      0.0216     -0.3628     -0.0292      0.0223
         3         0.0042     -0.0108      0.0127     -0.0062      0.0387      0.0586
         4         0.0003      0.0194     -0.0203      0.0080     -0.0515     -0.0886
         5         0.1981     -0.1918     -0.0068      0.0477      0.0479     -0.0278
         6         1.9200     -0.0197      0.0314      0.5055      0.0338     -0.0267
         7        -1.2544     -0.0448     -0.0173     -0.2313     -0.0194      0.0105
         8        -2.3489     -0.4305     -0.0136      2.0452      0.2372     -0.0007
         9         0.1284      0.0531     -0.0059      0.1811      0.3369     -0.0390
        10        -1.8614     -0.2695     -0.0402     -1.4011     -0.1405      0.0303
[...]
    36  C   -0.000649   0.000757  -0.002544   0.002971  -0.033390  -0.032265
    37  C    0.000120  -0.001496  -0.000786   0.002380  -0.000260  -0.023397
    38  H   -0.000020   0.000280   0.000028  -0.000075  -0.000052   0.001292
    39  C    0.002596  -0.008625   0.000454  -0.003716   0.017747   0.144241
    40  H    0.000002  -0.000037  -0.000008  -0.000057   0.000038  -0.000129
    41  H    0.000520  -0.002074  -0.000207   0.000141  -0.001139  -0.005043
    42  H    0.000004  -0.000012   0.000033   0.000112  -0.000047   0.000574
              19         20         21         22         23         24
     1  C   -0.178456  -0.078787   0.012717  -0.019159  -0.096879  -0.028711
     2  C    0.100506  -0.000930  -0.004854  -0.002302  -0.376190  -0.039460
     3  C    0.019350   0.120553   0.030383   0.008220  -0.157771   0.024968
     4  C   -0.041899   0.014051  -0.023495  -0.005050  -0.140618  -0.023400
     5  C   -0.076307  -0.366772  -0.073208  -0.025069  -0.042110   0.012482
     6  C   -0.086537   0.094120   0.050157   0.010396   0.470134   0.044893
     7  C    0.017105   0.007255   0.007364  -0.000544  -0.015964   0.002862
     8  C   -0.006237   0.053719   0.017664   0.002367  -0.023439   0.000961
     9  C   -0.000125   0.000074   0.001113  -0.000094  -0.000206  -0.000112
    10  C    0.000958   0.000789   0.000380   0.000023  -0.000462   0.000245
    11  C   -0.000230   0.001820   0.000506   0.000094  -0.000321   0.000031
    12  C    0.003374  -0.005481  -0.004857  -0.000037   0.000493   0.000549
    13  H   -0.014381   0.002850   0.002025  -0.002735   0.000403  -0.045519
    14  H   -0.005262  -0.004014  -0.000954   0.000038   0.007126   0.004357
    15  H   -0.012351  -0.016172  -0.055952   0.005728  -0.005327   0.000325
    16  H   -0.000070   0.000028   0.000308  -0.000019  -0.000037   0.000004
    17  O   -0.009023   0.005814   0.003597   0.000273  -0.000976   0.000064
    18  N    0.002454  -0.000785  -0.000429  -0.000040   0.000265   0.000111
    19  N    7.072546   0.073997  -0.057334  -0.072526   0.101101  -0.040310
    20  C    0.073997   6.012482   0.517569   0.502065  -0.466650  -0.056835
    21  H   -0.057334   0.517569   0.567334  -0.040138  -0.059511  -0.007951
    22  H   -0.072526   0.502065  -0.040138   0.497766   0.013036   0.004707
    23  C    0.101101  -0.466650  -0.059511   0.013036   6.202097   0.496647
    24  H   -0.040310  -0.056835  -0.007951   0.004707   0.496647   0.563905
    25  H   -0.082706   0.015451   0.005513  -0.015269   0.504484  -0.043111
    26  C    0.021251   0.133724   0.002581   0.007905  -0.224159  -0.053230
    27  H   -0.011484   0.011644   0.002622   0.002089   0.056226  -0.012445
    28  H    0.022902   0.004486   0.000492  -0.000700  -0.088761  -0.000401
    29  H    0.000378  -0.042584  -0.009671  -0.004673   0.035265   0.012556
    30  C    0.021133  -0.217403  -0.066594  -0.078932   0.166215   0.007897
    31  H   -0.007375   0.052553   0.013344  -0.000670  -0.045484  -0.009397
    32  H   -0.014216   0.052834  -0.009135   0.009911   0.006476   0.002734
    33  H    0.028089  -0.094469  -0.005283  -0.006475   0.007036   0.000506
    34  O    0.000000   0.000001  -0.000004   0.000000   0.000000   0.000000
    35  C   -0.000446   0.001349   0.000306   0.000051   0.000719  -0.000435
    36  C    0.000062   0.000078   0.000078   0.000000   0.000005   0.000020
    37  C    0.000007   0.000040   0.000027   0.000001  -0.000010  -0.000004
    38  H   -0.000001  -0.000003  -0.000002   0.000000   0.000004   0.000001
    39  C   -0.000072   0.000023  -0.000033   0.000003   0.000154  -0.000068
    40  H    0.000000   0.000000   0.000000   0.000000   0.000000   0.000000
    41  H    0.000049   0.000021   0.000039  -0.000003  -0.000221  -0.000055
    42  H   -0.000001  -0.000005  -0.000001   0.000000   0.000000   0.000000
              25         26         27         28         29         30
     1  C   -0.006195   0.127249   0.014209   0.009854  -0.008234  -0.053955
     2  C   -0.027697   0.135924  -0.030549   0.011792   0.002073  -0.019418
     3  C   -0.015322   0.047198   0.001056   0.003916  -0.003382  -0.005163
     4  C    0.011556  -0.060493  -0.007655  -0.002830  -0.002015  -0.021704
     5  C   -0.014835   0.011231  -0.032165   0.002041   0.023876   0.074442
     6  C    0.038380  -0.303600   0.004781  -0.001729  -0.034046  -0.043267
     7  C    0.000980  -0.007033   0.000630  -0.000292   0.000352  -0.000653
     8  C   -0.000302  -0.003442   0.003001  -0.000290  -0.000901  -0.006536
     9  C    0.000075  -0.000295   0.000057  -0.000025   0.000003   0.000283
    10  C    0.000009  -0.000136   0.000115  -0.000007  -0.000001  -0.000093
    11  C   -0.000046   0.000111   0.000004   0.000005  -0.000007  -0.000155
    12  C   -0.000129   0.000238  -0.000071   0.000029   0.000077  -0.000081
    13  H    0.009634  -0.001829  -0.001947  -0.002979  -0.002795  -0.002490
    14  H   -0.000137  -0.002478  -0.000039   0.000129   0.000441  -0.000159
    15  H   -0.002834   0.004168  -0.002452   0.000207   0.001809  -0.019970
    16  H    0.000010  -0.000041   0.000007  -0.000002   0.000000  -0.000004
    17  O    0.000066  -0.000659   0.000045  -0.000026  -0.000025  -0.000602
    18  N    0.000013   0.000016   0.000140   0.000006  -0.000010   0.000161
    19  N   -0.082706   0.021251  -0.011484   0.022902   0.000378   0.021133
    20  C    0.015451   0.133724   0.011644   0.004486  -0.042584  -0.217403
    21  H    0.005513   0.002581   0.002622   0.000492  -0.009671  -0.066594
    22  H   -0.015269   0.007905   0.002089  -0.000700  -0.004673  -0.078932
    23  C    0.504484  -0.224159   0.056226  -0.088761   0.035265   0.166215
    24  H   -0.043111  -0.053230  -0.012445  -0.000401   0.012556   0.007897
    25  H    0.499783  -0.088490   0.009074  -0.008021  -0.000938   0.006795
    26  C   -0.088490   5.553411   0.348971   0.432052   0.392391  -0.035441
    27  H    0.009074   0.348971   0.583797  -0.028180  -0.058478   0.001678
    28  H   -0.008021   0.432052  -0.028180   0.503163  -0.020967  -0.000626
    29  H   -0.000938   0.392391  -0.058478  -0.020967   0.548820   0.005296
    30  C    0.006795  -0.035441   0.001678  -0.000626   0.005296   5.552088
    31  H   -0.004801   0.008429   0.000573   0.000708  -0.004203   0.372689
    32  H    0.001171   0.000464   0.000746  -0.000223   0.000594   0.350487
    33  H   -0.000456  -0.000975  -0.000197  -0.000079   0.000492   0.443640
    34  O    0.000000   0.000000   0.000000   0.000000   0.000000   0.000000
    35  C    0.000029   0.000068  -0.000019   0.000001  -0.000041  -0.000118
    36  C    0.000002  -0.000006   0.000008   0.000000   0.000000   0.000011
    37  C    0.000000   0.000000   0.000002   0.000000  -0.000001  -0.000004
    38  H    0.000000   0.000000   0.000000   0.000000   0.000000   0.000000
    39  C    0.000003   0.000016  -0.000017   0.000002  -0.000003  -0.000004
    40  H    0.000000   0.000000   0.000000   0.000000   0.000000   0.000000
    41  H   -0.000005   0.000024  -0.000007  -0.000001  -0.000002  -0.000001
    42  H    0.000000   0.000000   0.000000   0.000000   0.000000   0.000000
              31         32         33         34         35         36
     1  C    0.037712  -0.028900  -0.007680  -0.000140   0.154090  -0.001928
     2  C    0.013010  -0.016860  -0.001303   0.000297   0.147499   0.004381
     3  C    0.006972   0.000408  -0.001836  -0.009719   0.735988  -0.290446
     4  C   -0.009436   0.001337   0.002701   0.021019  -0.751360  -0.020452
     5  C   -0.022496  -0.025161   0.029173  -0.001589   0.018918  -0.016973
     6  C   -0.037303   0.023123  -0.011621   0.000362  -0.005517   0.002030
     7  C   -0.001805   0.004451   0.001337   0.065251  -2.364950  -0.271350
     8  C    0.000682   0.004588  -0.000773  -0.126528  -1.258521  -1.251359
     9  C    0.000027  -0.000196  -0.000005  -0.077773  -1.484899  -2.568601
    10  C   -0.000055   0.000436   0.000030  -0.115176  -1.137527  -0.705805
    11  C    0.000033   0.000370  -0.000024   0.470839   0.129665  -0.484364
    12  C   -0.000336   0.000219   0.000353  -0.383486   0.191847   0.491757
    13  H    0.001926  -0.001924  -0.000206  -0.000004   0.008977  -0.000649
    14  H   -0.000233   0.000133  -0.000008   0.000010  -0.016652   0.000757
    15  H   -0.000880  -0.013910   0.000312   0.000108  -0.004100  -0.002544
    16  H    0.000004   0.000025   0.000024  -0.017077  -0.012260   0.002971
    17  O    0.000048   0.000700  -0.000179  -0.002943   0.076629  -0.033390
    18  N   -0.000071   0.000124   0.000021   0.000356   0.178002  -0.032265
    19  N   -0.007375  -0.014216   0.028089   0.000000  -0.000446   0.000062
    20  C    0.052553   0.052834  -0.094469   0.000001   0.001349   0.000078
    21  H    0.013344  -0.009135  -0.005283  -0.000004   0.000306   0.000078
    22  H   -0.000670   0.009911  -0.006475   0.000000   0.000051   0.000000
    23  C   -0.045484   0.006476   0.007036   0.000000   0.000719   0.000005
    24  H   -0.009397   0.002734   0.000506   0.000000  -0.000435   0.000020
    25  H   -0.004801   0.001171  -0.000456   0.000000   0.000029   0.000002
    26  C    0.008429   0.000464  -0.000975   0.000000   0.000068  -0.000006
    27  H    0.000573   0.000746  -0.000197   0.000000  -0.000019   0.000008
    28  H    0.000708  -0.000223  -0.000079   0.000000   0.000001   0.000000
    29  H   -0.004203   0.000594   0.000492   0.000000  -0.000041   0.000000
    30  C    0.372689   0.350487   0.443640   0.000000  -0.000118   0.000011
    31  H    0.556566  -0.058972  -0.026603   0.000000   0.000013  -0.000005
    32  H   -0.058972   0.589920  -0.029063   0.000000   0.000007   0.000044
    33  H   -0.026603  -0.029063   0.512508   0.000000  -0.000017   0.000005
    34  O    0.000000   0.000000   0.000000   8.408171   0.000135   0.161974
    35  C    0.000013   0.000007  -0.000017   0.000135  10.907604   2.080143
    36  C   -0.000005   0.000044   0.000005   0.161974   2.080143   9.286686
    37  C    0.000000   0.000010   0.000000   0.067088  -0.883857   0.037506
    38  H    0.000000   0.000000   0.000000  -0.000237  -0.107213  -0.015887
    39  C    0.000001  -0.000012  -0.000001  -0.017129  -0.765041  -0.704058
    40  H    0.000000   0.000000   0.000000   0.001882  -0.015720  -0.050824
    41  H    0.000004  -0.000009   0.000000   0.000180   0.493220   0.035585
    42  H    0.000000  -0.000001   0.000000  -0.002907   0.029978   0.432474
              37         38         39         40         41         42
     1  C    0.003672  -0.000025   0.011484   0.000044  -0.001034   0.000108
     2  C    0.028737  -0.002656  -0.033863   0.000343   0.020971   0.000178
     3  C   -0.078311   0.003006   0.580546   0.000144  -0.007731   0.003173
     4  C   -0.086253   0.004961   0.012087  -0.000709  -0.014277   0.000847
     5  C    0.002472  -0.000049   0.008235   0.000026  -0.000281  -0.000174
     6  C    0.000398   0.000143   0.004991   0.000008  -0.004432  -0.000099
     7  C    0.102551   0.010932  -0.519158   0.000845  -0.033967  -0.011442
     8  C   -0.183747   0.011335  -0.156212  -0.007185  -0.017442   0.004235
     9  C    0.658160   0.032043  -1.451107  -0.000401   0.042187   0.005161
    10  C   -0.406960   0.000497  -0.567449   0.007720   0.035477  -0.033020
    11  C   -0.342039  -0.008487   0.497111   0.006589  -0.011008  -0.036008
    12  C   -0.193379  -0.002552  -0.122196   0.001418  -0.000732   0.017109
    13  H    0.000120  -0.000020   0.002596   0.000002   0.000520   0.000004
    14  H   -0.001496   0.000280  -0.008625  -0.000037  -0.002074  -0.000012
    15  H   -0.000786   0.000028   0.000454  -0.000008  -0.000207   0.000033
    16  H    0.002380  -0.000075  -0.003716  -0.000057   0.000141   0.000112
    17  O   -0.000260  -0.000052   0.017747   0.000038  -0.001139  -0.000047
    18  N   -0.023397   0.001292   0.144241  -0.000129  -0.005043   0.000574
    19  N    0.000007  -0.000001  -0.000072   0.000000   0.000049  -0.000001
    20  C    0.000040  -0.000003   0.000023   0.000000   0.000021  -0.000005
    21  H    0.000027  -0.000002  -0.000033   0.000000   0.000039  -0.000001
    22  H    0.000001   0.000000   0.000003   0.000000  -0.000003   0.000000
    23  C   -0.000010   0.000004   0.000154   0.000000  -0.000221   0.000000
    24  H   -0.000004   0.000001  -0.000068   0.000000  -0.000055   0.000000
    25  H    0.000000   0.000000   0.000003   0.000000  -0.000005   0.000000
    26  C    0.000000   0.000000   0.000016   0.000000   0.000024   0.000000
    27  H    0.000002   0.000000  -0.000017   0.000000  -0.000007   0.000000
    28  H    0.000000   0.000000   0.000002   0.000000  -0.000001   0.000000
    29  H   -0.000001   0.000000  -0.000003   0.000000  -0.000002   0.000000
    30  C   -0.000004   0.000000  -0.000004   0.000000  -0.000001   0.000000
    31  H    0.000000   0.000000   0.000001   0.000000   0.000004   0.000000
    32  H    0.000010   0.000000  -0.000012   0.000000  -0.000009  -0.000001
    33  H    0.000000   0.000000  -0.000001   0.000000   0.000000   0.000000
    34  O    0.067088  -0.000237  -0.017129   0.001882   0.000180  -0.002907
    35  C   -0.883857  -0.107213  -0.765041  -0.015720   0.493220   0.029978
    36  C    0.037506  -0.015887  -0.704058  -0.050824   0.035585   0.432474
    37  C    7.220824  -0.035525   0.144842   0.437491  -0.000936  -0.051535
    38  H   -0.035525   0.450707   0.448821  -0.008118  -0.009730   0.000653
    39  C    0.144842   0.448821   9.108768  -0.032661  -0.170325  -0.004526
    40  H    0.437491  -0.008118  -0.032661   0.453208   0.001523  -0.008492
    41  H   -0.000936  -0.009730  -0.170325   0.001523   0.450796   0.000993
    42  H   -0.051535   0.000653  -0.004526  -0.008492   0.000993   0.444716
 Mulliken charges:
               1
     1  C   -0.239650
     2  C   -0.407569
     3  C    0.097237
     4  C    0.191443
     5  C   -0.246335
     6  C   -0.198552
     7  C    0.489080
     8  C    0.149319
     9  C    0.475975
    10  C    0.207226
    11  C   -0.567661
    12  C   -0.502914
    13  H    0.234311
    14  H    0.251147
    15  H    0.272137
    16  H    0.226949
    17  O   -0.090298
    18  N    0.092740
    19  N    0.232084
    20  C   -0.328501
    21  H    0.183286
    22  H    0.209759
    23  C   -0.322788
    24  H    0.180621
    25  H    0.208268
    26  C   -0.445116
    27  H    0.144232
    28  H    0.164355
    29  H    0.168550
    30  C   -0.429442
    31  H    0.164828
    32  H    0.147271
    33  H    0.161027
    34  O   -0.442961
    35  C   -0.346543
    36  C   -0.085672
    37  C   -0.417828
    38  H    0.225929
    39  C   -0.425850
    40  H    0.213058
    41  H    0.198931
    42  H    0.207919
 Sum of Mulliken charges =   0.00000
 Mulliken charges with hydrogens summed into heavy atoms:
               1
     1  C   -0.005339
     2  C   -0.156422
     3  C    0.097237
     4  C    0.191443
     5  C    0.025802
     6  C   -0.198552
     7  C    0.489080
     8  C    0.149319
     9  C    0.475975
    10  C    0.207226
    11  C   -0.567661
    12  C   -0.275965
    17  O   -0.090298
    18  N    0.092740
    19  N    0.232084
    20  C    0.064544
    23  C    0.066100
    26  C    0.032021
    30  C    0.043683
    34  O   -0.442961
    35  C   -0.147612
    36  C    0.122248
    37  C   -0.204770
    39  C   -0.199921
 Electronic spatial extent (au):  <R**2>=          11076.5946
 Charge=              0.0000 electrons
 Dipole moment (field-independent basis, Debye):
    X=             19.5457    Y=             -5.3798    Z=             -0.6512  Tot=             20.2830
 Quadrupole moment (field-independent basis, Debye-Ang):
   XX=           -112.7501   YY=           -146.4554   ZZ=           -146.5723
   XY=             28.1338   XZ=              2.8047   YZ=             -0.1010
 Traceless Quadrupole moment (field-independent basis, Debye-Ang):
   XX=             22.5092   YY=            -11.1961   ZZ=            -11.3130
   XY=             28.1338   XZ=              2.8047   YZ=             -0.1010
 Octapole moment (field-independent basis, Debye-Ang**2):
  XXX=            462.7415  YYY=            -59.5721  ZZZ=              2.3292  XYY=            119.6420
  XXY=           -150.2292  XXZ=            -17.2032  XZZ=             29.0990  YZZ=              7.8226
  YYZ=             -8.8067  XYZ=             10.6467
 Hexadecapole moment (field-independent basis, Debye-Ang**3):
 XXXX=         -11233.3203 YYYY=          -2176.2242 ZZZZ=           -321.5024 XXXY=            749.1369
 XXXZ=             76.2961 YYYX=            305.3364 YYYZ=              1.1363 ZZZX=              1.2645
 ZZZY=             -6.1595 XXYY=          -2632.0305 XXZZ=          -2300.5409 YYZZ=           -433.3612
 XXYZ=             -7.3847 YYXZ=             37.2619 ZZXY=            -13.3477
 N-N= 1.894306621997D+03 E-N=-6.190769800236D+03  KE= 1.027867701681D+03
 No NMR shielding tensors so no spin-rotation constants.
 Leave Link  601 at Mon Feb 17 10:18:55 2020, MaxMem=  6710886400 cpu:         7.5
 (Enter /opt/sys/apps/gaussian09/D.01/g09/l9999.exe)

 Test job not archived.
 1\1\GINC-S64P31\SP\RCAM-B3LYP TD-FC\6-311++G(d,p)\C20H18N2O2\SALVATORE
 \17-Feb-2020\0\\#p CAM-B3LYP/6-311++G** nosym density=current geom=all
 check EmpiricalDispersion=GD3 SCRF=(CPCM, solvent=ethanol) IOP(10/74=1
 0) TD=(NSTATES=10,ROOT=1,NONEQ) iop(3/119=0810000000) iop(3/120=081000
 0000)\\Nil\\0,1\C,0,2.7631166535,-1.6104962466,-0.2057346899\C,0,1.431
 1207271,-1.9430978243,-0.2361980655\C,0,0.4237491581,-0.9619566114,-0.
 1140953577\C,0,0.8541744724,0.375729319,0.0389332997\C,0,2.1810018188,
 0.7405812364,0.0724820067\C,0,3.1884754045,-0.2515927897,-0.0469981642
 \C,0,-1.4103666291,1.0542216463,0.1197609058\C,0,-1.7897686599,-0.3386
 078978,-0.0291152362\C,0,-3.2201969374,-0.6443702392,-0.0524624183\C,0
 ,-4.1644810554,0.4001704592,0.0635119043\C,0,-3.7293333384,1.817700711
 6,0.2101898883\C,0,-2.3088967063,2.0699271013,0.2311537067\H,0,3.49378
 39784,-2.4010423249,-0.2852773134\H,0,1.1256754962,-2.9769006227,-0.34
 80562486\H,0,2.4147973888,1.789742818,0.1721062569\H,0,-1.9672015628,3
 .0916757302,0.339336909\O,0,-0.0834604084,1.3662858678,0.1506859275\N,
 0,-0.8963246554,-1.2914086585,-0.1414405173\N,0,4.5093631553,0.0747615
 63,-0.0085958811\C,0,4.9636624031,1.4420880068,0.2712071018\H,0,4.3057
 959254,1.8981342486,1.0132954138\H,0,5.9437911634,1.3641496835,0.74606
 68232\C,0,5.5682585707,-0.9138458764,-0.2491978372\H,0,5.2455980479,-1
 .6137830381,-1.0214532337\H,0,6.4184350053,-0.3740700303,-0.6711680058
 \C,0,5.9966135754,-1.6549535745,1.0199826269\H,0,5.1644650063,-2.21821
 38114,1.4482049583\H,0,6.8049246677,-2.3544235745,0.7914320795\H,0,6.3
 561175869,-0.9515050874,1.7751968387\C,0,5.059443818,2.3104843834,-0.9
 859245757\H,0,5.7534896594,1.8699843284,-1.7061767766\H,0,4.0860795164
 ,2.4139271145,-1.4705145759\H,0,5.4228712833,3.3081120326,-0.726243085
 6\O,0,-4.5577346248,2.7383786752,0.3105444803\C,0,-3.6751466214,-1.967
 7422106,-0.1894990628\C,0,-5.5340353721,0.1004185815,0.0405675816\C,0,
 -5.9695671085,-1.2091612181,-0.0945356367\H,0,-5.370171631,-3.27082911
 02,-0.3158527549\C,0,-5.0329928515,-2.2460005358,-0.2099174145\H,0,-7.
 0303419844,-1.4311054995,-0.1111131927\H,0,-2.9487676233,-2.7650866068
 ,-0.2783918164\H,0,-6.2403147121,0.9162878813,0.130825152\\Version=ES6
 4L-G09RevD.01\HF=-1031.9058888\RMSD=6.470e-09\Dipole=7.6898665,-2.1165
 628,-0.2561953\Quadrupole=16.7350239,-8.3240508,-8.4109731,20.9168267,
 2.0852135,-0.0750549\PG=C01 [X(C20H18N2O2)]\\@


 A MUSTACHE HAIR ACROSS A CHIP IS LIKE A REDWOOD
 TREE FALLING THROUGH A HOUSING PROJECT.
 - AN IBM MANAGER IN EAST FISHKILL, NEW YORK
   AS QUOTED IN "FROM SANDS TO CIRCUITS", IBM INNOVATION JANUARY 1985.
 Job cpu time:       0 days 14 hours 23 minutes  4.1 seconds.
 File lengths (MBytes):  RWF=   1215 Int=      0 D2E=      0 Chk=    268 Scr=      1
 Normal termination of Gaussian 09 at Mon Feb 17 10:18:55 2020.
