 Entering Gaussian System, Link 0=g09
 Initial command:
 /opt/sys/apps/gaussian09/D.01/g09/l1.exe "/tmp/Gau-4955.inp" -scrdir="/tmp/"
 Entering Link 1 = /opt/sys/apps/gaussian09/D.01/g09/l1.exe PID=      4956.
  
 Copyright (c) 1988,1990,1992,1993,1995,1998,2003,2009,2013,
            Gaussian, Inc.  All Rights Reserved.
  
 This is part of the Gaussian(R) 09 program.  It is based on
 the Gaussian(R) 03 system (copyright 2003, Gaussian, Inc.),
 the Gaussian(R) 98 system (copyright 1998, Gaussian, Inc.),
 the Gaussian(R) 94 system (copyright 1995, Gaussian, Inc.),
 the Gaussian 92(TM) system (copyright 1992, Gaussian, Inc.),
 the Gaussian 90(TM) system (copyright 1990, Gaussian, Inc.),
 the Gaussian 88(TM) system (copyright 1988, Gaussian, Inc.),
 the Gaussian 86(TM) system (copyright 1986, Carnegie Mellon
 University), and the Gaussian 82(TM) system (copyright 1983,
 Carnegie Mellon University). Gaussian is a federally registered
 trademark of Gaussian, Inc.
  
 This software contains proprietary and confidential information,
 including trade secrets, belonging to Gaussian, Inc.
  
 This software is provided under written license and may be
 used, copied, transmitted, or stored only in accord with that
 written license.
  
 The following legend is applicable only to US Government
 contracts under FAR:
  
                    RESTRICTED RIGHTS LEGEND
  
 Use, reproduction and disclosure by the US Government is
 subject to restrictions as set forth in subparagraphs (a)
 and (c) of the Commercial Computer Software - Restricted
 Rights clause in FAR 52.227-19.
  
 Gaussian, Inc.
 340 Quinnipiac St., Bldg. 40, Wallingford CT 06492
  
  
 ---------------------------------------------------------------
 Warning -- This program may not be used in any manner that
 competes with the business of Gaussian, Inc. or will provide
 assistance to any competitor of Gaussian, Inc.  The licensee
 of this program is prohibited from giving any competitor of
 Gaussian, Inc. access to this program.  By using this program,
 the user acknowledges that Gaussian, Inc. is engaged in the
 business of creating and licensing software in the field of
 computational chemistry and represents and warrants to the
 licensee that it is not a competitor of Gaussian, Inc. and that
 it will not use this program in any manner prohibited above.
 ---------------------------------------------------------------
  

 Cite this work as:
 Gaussian 09, Revision D.01,
 M. J. Frisch, G. W. Trucks, H. B. Schlegel, G. E. Scuseria, 
 M. A. Robb, J. R. Cheeseman, G. Scalmani, V. Barone, B. Mennucci, 
 G. A. Petersson, H. Nakatsuji, M. Caricato, X. Li, H. P. Hratchian, 
 A. F. Izmaylov, J. Bloino, G. Zheng, J. L. Sonnenberg, M. Hada, 
 M. Ehara, K. Toyota, R. Fukuda, J. Hasegawa, M. Ishida, T. Nakajima, 
 Y. Honda, O. Kitao, H. Nakai, T. Vreven, J. A. Montgomery, Jr., 
 J. E. Peralta, F. Ogliaro, M. Bearpark, J. J. Heyd, E. Brothers, 
 K. N. Kudin, V. N. Staroverov, T. Keith, R. Kobayashi, J. Normand, 
 K. Raghavachari, A. Rendell, J. C. Burant, S. S. Iyengar, J. Tomasi, 
 M. Cossi, N. Rega, J. M. Millam, M. Klene, J. E. Knox, J. B. Cross, 
 V. Bakken, C. Adamo, J. Jaramillo, R. Gomperts, R. E. Stratmann, 
 O. Yazyev, A. J. Austin, R. Cammi, C. Pomelli, J. W. Ochterski, 
 R. L. Martin, K. Morokuma, V. G. Zakrzewski, G. A. Voth, 
 P. Salvador, J. J. Dannenberg, S. Dapprich, A. D. Daniels, 
 O. Farkas, J. B. Foresman, J. V. Ortiz, J. Cioslowski, 
 and D. J. Fox, Gaussian, Inc., Wallingford CT, 2013.
 
 ******************************************
 Gaussian 09:  ES64L-G09RevD.01 24-Apr-2013
                17-Feb-2020 
 ******************************************
 %NProcShared=24
 Will use up to   24 processors via shared memory.
 %mem=50GB
 %oldChk=checkpointCPCM_acet.chk
 %Chk=checkpointCPCMES.chk
 Copying data from "checkpointCPCM_acet.chk" to current chk file "checkpointCPCMES.chk".
 ----------------------------------------------------------------------
 #p CAM-B3LYP/6-311++G** nosym density=current geom=allcheck EmpiricalD
 ispersion=GD3 SCRF=(CPCM, solvent=acetonitrile) IOP(10/74=10) TD=(NSTA
 TES=10,ROOT=1,NONEQ) iop(3/119=0810000000) iop(3/120=0810000000)
 ----------------------------------------------------------------------
 1/29=7,30=1,38=1/1;
 2/12=2,15=1,40=1/2;
 3/5=4,6=6,7=1111,11=9,14=-4,16=1,25=1,30=1,70=2101,71=1,72=2,74=-40,119=810000000,120=810000000,124=31/1,2,8,3;
 4//1;
 5/5=2,38=5,53=2/2;
 8/6=1,10=2,107=1,108=10/1;
 9/8=1,15=1,41=10,42=1,70=2,73=1/14;
 10/5=4,13=10,31=1,74=10/2;
 6/7=2,8=2,9=2,10=2,22=-1/1;
 99/5=1,9=1/99;
 Leave Link    1 at Mon Feb 17 13:03:12 2020, MaxMem=  6710886400 cpu:        15.5
 (Enter /opt/sys/apps/gaussian09/D.01/g09/l101.exe)
 Structure from the checkpoint file:  "checkpointCPCMES.chk"
 --------
 NRA_NRA1
 --------
 Charge =  0 Multiplicity = 1
 Redundant internal coordinates found in file.
 O,0,-6.8561873527,-5.1760756702,-0.8774739998
 C,0,-6.3810585955,-4.0469798901,-0.7041850319
 C,0,-4.9518060289,-3.8483672306,-0.7283600413
 C,0,-4.3877998928,-2.6449889098,-0.4554054319
 O,0,-3.0292067167,-2.5394924159,-0.4840890985
 C,0,-2.4360254205,-1.342536562,-0.1871085184
 C,0,-1.0628295222,-1.2779732005,-0.2245128012
 C,0,-0.4054288881,-0.058279834,0.0860644451
 N,0,0.9495360746,0.0418813147,0.0449316074
 C,0,1.6615928842,1.2518674424,0.477386028
 C,0,1.832921761,2.2778297916,-0.6452859018
 C,0,1.7960300839,-1.0541980297,-0.4433565684
 C,0,-1.2236252722,1.0646780297,0.439870063
 C,0,-2.5921998261,0.9695632321,0.467288854
 C,0,-3.2533816186,-0.2380252116,0.1518597787
 N,0,-4.6085817629,-0.3291365604,0.1692174121
 C,0,-5.169803904,-1.4777077244,-0.1266660991
 C,0,-6.6292122673,-1.6106361313,-0.1360732835
 C,0,-7.2477551893,-2.8475526015,-0.4513007406
 C,0,-8.6696966569,-2.8898604113,-0.4870421036
 C,0,-9.4757031873,-4.124322199,-0.860474105
 F,0,-9.1617956347,-4.6211841691,-2.0779667378
 F,0,-9.3833032252,-5.1242925959,0.045455528
 F,0,-10.808952281,-3.8405296576,-0.9327060733
 C,0,-9.410912276,-1.751835117,-0.1878705963
 C,0,-8.7822216561,-0.5498675798,0.1460302457
 C,0,-7.4064245453,-0.4779427956,0.1638841024
 C,0,2.1867443472,-2.0446604286,0.6564782337
 H,0,-4.3325248922,-4.7090942638,-0.9462544952
 H,0,-0.5194252265,-2.1769154412,-0.4731222025
 H,0,2.6390523113,0.9319201441,0.8438924501
 H,0,1.1488096481,1.6901514818,1.3346985798
 H,0,2.3907975436,3.1436980461,-0.2796470635
 H,0,2.3839981196,1.8448851707,-1.4838440037
 H,0,0.8647856503,2.6223351248,-1.0152905052
 H,0,2.6911777156,-0.6000470733,-0.8731425108
 H,0,1.2915470806,-1.5621770984,-1.2671391154
 H,0,-0.767994939,2.0156928659,0.6704113171
 H,0,-3.1979281163,1.8304214705,0.7250136205
 H,0,-10.4899142741,-1.78823996,-0.2168287462
 H,0,-9.3810056751,0.3220672336,0.3792118947
 H,0,-6.9020970859,0.447758202,0.4056397052
 H,0,2.8287592338,-2.8274550568,0.2444853447
 H,0,2.7342703018,-1.5387104332,1.4556002071
 H,0,1.3048791737,-2.5176652974,1.0941263577
 Recover connectivity data from disk.
 NAtoms=     45 NQM=       45 NQMF=       0 NMMI=      0 NMMIF=      0
                NMic=       0 NMicF=      0.
                    Isotopes and Nuclear Properties:
 (Nuclear quadrupole moments (NQMom) in fm**2, nuclear magnetic moments (NMagM)
  in nuclear magnetons)

  Atom         1           2           3           4           5           6           7           8           9          10
 IAtWgt=          16          12          12          12          16          12          12          12          14          12
 AtmWgt=  15.9949146  12.0000000  12.0000000  12.0000000  15.9949146  12.0000000  12.0000000  12.0000000  14.0030740  12.0000000
 NucSpn=           0           0           0           0           0           0           0           0           2           0
 AtZEff=  -5.6000000  -3.6000000  -3.6000000  -3.6000000  -5.6000000  -3.6000000  -3.6000000  -3.6000000  -4.5500000  -3.6000000
 NQMom=    0.0000000   0.0000000   0.0000000   0.0000000   0.0000000   0.0000000   0.0000000   0.0000000   2.0440000   0.0000000
 NMagM=    0.0000000   0.0000000   0.0000000   0.0000000   0.0000000   0.0000000   0.0000000   0.0000000   0.4037610   0.0000000
 AtZNuc=   8.0000000   6.0000000   6.0000000   6.0000000   8.0000000   6.0000000   6.0000000   6.0000000   7.0000000   6.0000000

  Atom        11          12          13          14          15          16          17          18          19          20
 IAtWgt=          12          12          12          12          12          14          12          12          12          12
 AtmWgt=  12.0000000  12.0000000  12.0000000  12.0000000  12.0000000  14.0030740  12.0000000  12.0000000  12.0000000  12.0000000
 NucSpn=           0           0           0           0           0           2           0           0           0           0
 AtZEff=  -3.6000000  -3.6000000  -3.6000000  -3.6000000  -3.6000000  -4.5500000  -3.6000000  -3.6000000  -3.6000000  -3.6000000
 NQMom=    0.0000000   0.0000000   0.0000000   0.0000000   0.0000000   2.0440000   0.0000000   0.0000000   0.0000000   0.0000000
 NMagM=    0.0000000   0.0000000   0.0000000   0.0000000   0.0000000   0.4037610   0.0000000   0.0000000   0.0000000   0.0000000
 AtZNuc=   6.0000000   6.0000000   6.0000000   6.0000000   6.0000000   7.0000000   6.0000000   6.0000000   6.0000000   6.0000000

  Atom        21          22          23          24          25          26          27          28          29          30
 IAtWgt=          12          19          19          19          12          12          12          12           1           1
 AtmWgt=  12.0000000  18.9984033  18.9984033  18.9984033  12.0000000  12.0000000  12.0000000  12.0000000   1.0078250   1.0078250
 NucSpn=           0           1           1           1           0           0           0           0           1           1
 AtZEff=  -3.6000000  -6.7500000  -6.7500000  -6.7500000  -3.6000000  -3.6000000  -3.6000000  -3.6000000  -1.0000000  -1.0000000
 NQMom=    0.0000000   0.0000000   0.0000000   0.0000000   0.0000000   0.0000000   0.0000000   0.0000000   0.0000000   0.0000000
 NMagM=    0.0000000   2.6288670   2.6288670   2.6288670   0.0000000   0.0000000   0.0000000   0.0000000   2.7928460   2.7928460
 AtZNuc=   6.0000000   9.0000000   9.0000000   9.0000000   6.0000000   6.0000000   6.0000000   6.0000000   1.0000000   1.0000000

  Atom        31          32          33          34          35          36          37          38          39          40
 IAtWgt=           1           1           1           1           1           1           1           1           1           1
 AtmWgt=   1.0078250   1.0078250   1.0078250   1.0078250   1.0078250   1.0078250   1.0078250   1.0078250   1.0078250   1.0078250
 NucSpn=           1           1           1           1           1           1           1           1           1           1
 AtZEff=  -1.0000000  -1.0000000  -1.0000000  -1.0000000  -1.0000000  -1.0000000  -1.0000000  -1.0000000  -1.0000000  -1.0000000
 NQMom=    0.0000000   0.0000000   0.0000000   0.0000000   0.0000000   0.0000000   0.0000000   0.0000000   0.0000000   0.0000000
 NMagM=    2.7928460   2.7928460   2.7928460   2.7928460   2.7928460   2.7928460   2.7928460   2.7928460   2.7928460   2.7928460
 AtZNuc=   1.0000000   1.0000000   1.0000000   1.0000000   1.0000000   1.0000000   1.0000000   1.0000000   1.0000000   1.0000000

  Atom        41          42          43          44          45
 IAtWgt=           1           1           1           1           1
 AtmWgt=   1.0078250   1.0078250   1.0078250   1.0078250   1.0078250
 NucSpn=           1           1           1           1           1
 AtZEff=  -1.0000000  -1.0000000  -1.0000000  -1.0000000  -1.0000000
 NQMom=    0.0000000   0.0000000   0.0000000   0.0000000   0.0000000
 NMagM=    2.7928460   2.7928460   2.7928460   2.7928460   2.7928460
 AtZNuc=   1.0000000   1.0000000   1.0000000   1.0000000   1.0000000
 Leave Link  101 at Mon Feb 17 13:03:13 2020, MaxMem=  6710886400 cpu:         8.3
 (Enter /opt/sys/apps/gaussian09/D.01/g09/l202.exe)
                          Input orientation:                          
 ---------------------------------------------------------------------
 Center     Atomic      Atomic             Coordinates (Angstroms)
 Number     Number       Type             X           Y           Z
 ---------------------------------------------------------------------
      1          8           0       -6.856187   -5.176076   -0.877474
      2          6           0       -6.381059   -4.046980   -0.704185
      3          6           0       -4.951806   -3.848367   -0.728360
      4          6           0       -4.387800   -2.644989   -0.455405
      5          8           0       -3.029207   -2.539492   -0.484089
      6          6           0       -2.436025   -1.342537   -0.187109
      7          6           0       -1.062830   -1.277973   -0.224513
      8          6           0       -0.405429   -0.058280    0.086064
      9          7           0        0.949536    0.041881    0.044932
     10          6           0        1.661593    1.251867    0.477386
     11          6           0        1.832922    2.277830   -0.645286
     12          6           0        1.796030   -1.054198   -0.443357
     13          6           0       -1.223625    1.064678    0.439870
     14          6           0       -2.592200    0.969563    0.467289
     15          6           0       -3.253382   -0.238025    0.151860
     16          7           0       -4.608582   -0.329137    0.169217
     17          6           0       -5.169804   -1.477708   -0.126666
     18          6           0       -6.629212   -1.610636   -0.136073
     19          6           0       -7.247755   -2.847553   -0.451301
     20          6           0       -8.669697   -2.889860   -0.487042
     21          6           0       -9.475703   -4.124322   -0.860474
     22          9           0       -9.161796   -4.621184   -2.077967
     23          9           0       -9.383303   -5.124293    0.045456
     24          9           0      -10.808952   -3.840530   -0.932706
     25          6           0       -9.410912   -1.751835   -0.187871
     26          6           0       -8.782222   -0.549868    0.146030
     27          6           0       -7.406425   -0.477943    0.163884
     28          6           0        2.186744   -2.044660    0.656478
     29          1           0       -4.332525   -4.709094   -0.946254
     30          1           0       -0.519425   -2.176915   -0.473122
     31          1           0        2.639052    0.931920    0.843892
     32          1           0        1.148810    1.690151    1.334699
     33          1           0        2.390798    3.143698   -0.279647
     34          1           0        2.383998    1.844885   -1.483844
     35          1           0        0.864786    2.622335   -1.015291
     36          1           0        2.691178   -0.600047   -0.873143
     37          1           0        1.291547   -1.562177   -1.267139
     38          1           0       -0.767995    2.015693    0.670411
     39          1           0       -3.197928    1.830421    0.725014
     40          1           0      -10.489914   -1.788240   -0.216829
     41          1           0       -9.381006    0.322067    0.379212
     42          1           0       -6.902097    0.447758    0.405640
     43          1           0        2.828759   -2.827455    0.244485
     44          1           0        2.734270   -1.538710    1.455600
     45          1           0        1.304879   -2.517665    1.094126
 ---------------------------------------------------------------------
                    Distance matrix (angstroms):
                    1          2          3          4          5
     1  O    0.000000
     2  C    1.237188   0.000000
     3  C    2.326309   1.443189   0.000000
     4  C    3.560545   2.449602   1.356734   0.000000
     5  O    4.663915   3.681830   2.338634   1.362985   0.000000
     6  C    5.891558   4.810891   3.591837   2.361734   1.368490
     7  C    7.013170   6.015068   4.688809   3.602426   2.350628
     8  C    8.290508   7.227889   5.974746   4.779491   3.655913
     9  N    9.434364   8.427193   7.110405   5.996396   4.772185
    10  C   10.756704   9.703512   8.438203   7.256083   6.107573
    11  C   11.450556  10.367071   9.141648   7.935211   6.846376
    12  C    9.593706   8.711461   7.309029   6.385179   5.048828
    13  C    8.509298   7.350988   6.277110   4.957333   4.135682
    14  C    7.599925   6.394803   5.496342   4.140113   3.661908
    15  C    6.198716   5.002331   4.085829   2.729313   2.398215
    16  N    5.444273   4.210328   3.648072   2.408749   2.794084
    17  C    4.133464   2.898590   2.455521   1.442964   2.416049
    18  C    3.648774   2.513981   2.858660   2.489134   3.734157
    19  C    2.399368   1.501246   2.519876   2.867123   4.229909
    20  C    2.944152   2.573702   3.847035   4.289010   5.651362
    21  C    2.822824   3.099554   4.534231   5.314063   6.649110
    22  F    2.657991   3.154280   4.488062   5.415634   6.669523
    23  F    2.690873   3.276589   4.675997   5.599363   6.880127
    24  F    4.172659   4.438591   5.860715   6.548918   7.900531
    25  C    4.327539   3.835920   4.956935   5.108910   6.436949
    26  C    5.114584   4.326459   5.129985   4.905324   6.119872
    27  C    4.843515   3.813521   4.263920   3.767188   4.881587
    28  C    9.691924   8.903254   7.491998   6.694872   5.362080
    29  H    2.567426   2.166445   1.082515   2.122385   2.572821
    30  H    7.022323   6.157051   4.743933   3.896630   2.535860
    31  H   11.420608  10.418656   9.107374   7.991189   6.778156
    32  H   10.775841   9.683524   8.494052   7.256167   6.217210
    33  H   12.453223  11.350398  10.149096   8.915670   7.856010
    34  H   11.620783  10.590003   9.316539   8.189866   7.037405
    35  H   10.974863   9.852858   8.705461   7.459747   6.487666
    36  H   10.587362   9.706460   8.305886   7.380258   6.052736
    37  H    8.921753   8.084556   6.670563   5.838354   4.498580
    38  H    9.549009   8.375679   7.338122   6.007696   5.214946
    39  H    8.064851   6.835113   6.118580   4.778962   4.537240
    40  H    5.011772   4.714034   5.930972   6.166582   7.503197
    41  H    6.179283   5.409437   6.183611   5.867888   7.019912
    42  H    5.768535   4.658955   4.852451   4.077766   4.971374
    43  H   10.028609   9.338520   7.907331   7.252714   5.910119
    44  H   10.519056   9.697696   8.317450   7.456519   6.162924
    45  H    8.806666   8.040296   6.651190   5.901174   4.612542
                    6          7          8          9         10
     6  C    0.000000
     7  C    1.375222   0.000000
     8  C    2.418111   1.419960   0.000000
     9  N    3.665035   2.421618   1.359284   0.000000
    10  C    4.895198   3.783548   2.478346   1.469050   0.000000
    11  C    5.616128   4.605015   3.317001   2.501247   1.530472
    12  C    4.249600   2.875943   2.473573   1.468457   2.486720
    13  C    2.767255   2.440343   1.433757   2.434075   2.891527
    14  C    2.407993   2.805171   2.446173   3.685495   4.263162
    15  C    1.415244   2.453908   2.854378   4.213585   5.146137
    16  N    2.423623   3.691568   4.212692   5.571874   6.473765
    17  C    2.737785   4.112992   4.975872   6.307529   7.381290
    18  C    4.202059   5.577016   6.418305   7.758931   8.792480
    19  C    5.048526   6.385007   7.408524   8.705783   9.851101
    20  C    6.429839   7.780201   8.754680  10.070141  11.172268
    21  C    7.599264   8.904077   9.984914  11.263331  12.439158
    22  F    7.717568   8.955758  10.108268  11.335339  12.576498
    23  F    7.913307   9.170460  10.308655  11.552356  12.760553
    24  F    8.769367  10.102235  11.116502  12.421390  13.543831
    25  C    6.986886   8.361601   9.167437  10.517153  11.491961
    26  C    6.404179   7.762503   8.391419   9.750256  10.603269
    27  C    5.057231   6.405630   7.013994   8.372959   9.236854
    28  C    4.751275   3.453069   3.315184   2.501665   3.342896
    29  H    3.937858   4.794206   6.173965   7.173171   8.572588
    30  H    2.109822   1.079441   2.194152   2.710957   4.173351
    31  H    5.656194   4.441739   3.289934   2.070018   1.091843
    32  H    4.936004   4.016497   2.651746   2.102380   1.090882
    33  H    6.590378   5.610861   4.266766   3.435674   2.164223
    34  H    5.922314   4.818587   3.723916   2.765079   2.172547
    35  H    5.225079   4.421927   3.164194   2.791056   2.177422
    36  H    5.225911   3.869480   3.286725   2.070808   2.512680
    37  H    3.887095   2.590546   2.640567   2.100358   3.331538
    38  H    3.846475   3.425792   2.185012   2.690180   2.554131
    39  H    3.388233   3.888748   3.431254   4.567587   4.900101
    40  H    8.066267   9.440888  10.236276  11.587877  12.545251
    41  H    7.164103   8.492153   8.988414  10.339746  11.082109
    42  H    4.847917   6.121461   6.524178   7.870387   8.601658
    43  H    5.487186   4.214892   4.260681   3.435752   4.249399
    44  H    5.428530   4.160376   3.731624   2.770114   3.145610
    45  H    4.125149   2.980216   3.160683   2.788971   3.836273
                   11         12         13         14         15
    11  C    0.000000
    12  C    3.338345   0.000000
    13  C    3.462915   3.793157   0.000000
    14  C    4.746692   4.917463   1.372150   0.000000
    15  C    5.730222   5.149464   2.428970   1.412419   0.000000
    16  N    6.996618   6.474567   3.670681   2.416871   1.358370
    17  C    7.963115   6.985878   4.728320   3.603604   2.299362
    18  C    9.326692   8.449187   6.058827   4.828969   3.655571
    19  C   10.429088   9.219883   7.238085   6.090023   4.809205
    20  C   11.706197  10.625582   8.481835   7.262360   6.064396
    21  C   12.996879  11.689808   9.834298   8.665636   7.405769
    22  F   13.058820  11.639127  10.083803   8.994130   7.687234
    23  F   13.456309  11.907229  10.248866   9.134118   7.839826
    24  F   14.047559  12.918540  10.854654   9.623513   8.440437
    25  C   11.952875  11.231542   8.680926   7.370894   6.349978
    26  C   11.013779  10.606655   7.734693   6.381869   5.537631
    27  C    9.675462   9.240454   6.378311   5.036277   4.159984
    28  C    4.528101   1.530787   4.620122   5.653286   5.754437
    29  H    9.323112   7.153346   6.702466   6.105243   4.728727
    30  H    5.040628   2.573463   3.440549   3.883439   3.409460
    31  H    2.163093   2.512441   3.886018   5.244926   6.047186
    32  H    2.175710   3.333441   2.611586   3.907275   4.949370
    33  H    1.092998   4.242980   4.231321   5.487717   6.593861
    34  H    1.092843   3.135762   4.162252   5.416240   6.228490
    35  H    1.092188   3.835521   2.984166   4.108582   5.148126
    36  H    3.011760   1.091906   4.452078   5.672258   6.043135
    37  H    3.927524   1.091404   4.017504   4.949893   4.941995
    38  H    2.926524   4.151979   1.079434   2.112669   3.394891
    39  H    5.233292   5.884364   2.136713   1.083700   2.147103
    40  H   12.983404  12.309937   9.717742   8.393294   7.409892
    41  H   11.429207  11.291450   8.191337   6.820183   6.157367
    42  H    8.986332   8.867586   5.711988   4.341808   3.721267
    43  H    5.277056   2.164277   5.622161   6.622219   6.611064
    44  H    4.448835   2.172806   4.845026   5.969881   6.264463
    45  H    5.128465   2.178720   4.433347   5.266964   5.182892
                   16         17         18         19         20
    16  N    0.000000
    17  C    1.312148   0.000000
    18  C    2.412134   1.465480   0.000000
    19  C    3.700365   2.509929   1.418424   0.000000
    20  C    4.845682   3.791213   2.433756   1.423020   0.000000
    21  C    6.257201   5.107231   3.865991   2.600253   1.520853
    22  F    6.648554   5.442887   4.387292   3.074957   2.402225
    23  F    6.768072   5.575014   4.468081   3.160835   2.405301
    24  F    7.210320   6.167059   4.803881   3.728254   2.383024
    25  C    5.021351   4.250399   2.785763   2.439107   1.390685
    26  C    4.179537   3.739627   2.416663   2.826791   2.426728
    27  C    2.801802   2.467067   1.406068   2.453300   2.799448
    28  C    7.025447   7.419808   8.862145   9.533184  10.949170
    29  H    4.528191   3.437240   3.941016   3.494121   4.725627
    30  H    4.533000   4.715394   6.145224   6.761705   8.181406
    31  H    7.387398   8.229613   9.660520  10.663531  12.011045
    32  H    6.211556   7.217742   8.576479   9.709936  10.986278
    33  H    7.826453   8.862476  10.197298  11.350165  12.600848
    34  H    7.507007   8.363102   9.746542  10.763633  12.066300
    35  H    6.330244   7.349577   8.651651   9.800565  11.025865
    36  H    7.378780   7.944970   9.403948  10.198609  11.595766
    37  H    6.196372   6.561773   8.001255   8.673953  10.079567
    38  H    4.527640   5.675835   6.939348   8.179040   9.372355
    39  H    2.638663   3.944283   4.935186   6.298274   7.327373
    40  H    6.071910   5.329928   3.865629   3.418876   2.144709
    41  H    4.821223   4.607529   3.401945   3.909859   3.401887
    42  H    2.433038   2.644165   2.145905   3.422411   3.880849
    43  H    7.846101   8.120134   9.543516  10.100528  11.521871
    44  H    7.552174   8.061121   9.498074  10.246471  11.646885
    45  H    6.372922   6.670335   8.079969   8.697398  10.105978
                   21         22         23         24         25
    21  C    0.000000
    22  F    1.351924   0.000000
    23  F    1.352474   2.193423   0.000000
    24  F    1.365031   2.152712   2.153444   0.000000
    25  C    2.466838   3.444951   3.380632   2.621439   0.000000
    26  C    3.777657   4.654660   4.614843   4.012451   1.396949
    27  C    4.315936   5.027293   5.050806   4.907820   2.400938
    28  C   11.943149  11.954289  11.988473  13.215097  11.632038
    29  H    5.177026   4.960883   5.163937   6.534424   5.925415
    30  H    9.173731   9.123625   9.355442  10.433274   8.906212
    31  H   13.237740  13.365412  13.485260  14.379896  12.388249
    32  H   12.308824  12.561362  12.610480  13.368531  11.210407
    33  H   13.927502  14.035304  14.390789  14.947887  12.777129
    34  H   13.291822  13.246448  13.761453  14.376426  12.399026
    35  H   12.347755  12.414918  12.890258  13.343598  11.198569
    36  H   12.667031  12.574344  12.926937  13.883724  12.176075
    37  H   11.075362  10.921874  11.329784  12.317663  10.758412
    38  H   10.764180  11.047969  11.206851  11.733974   9.467362
    39  H    8.796772   9.222127   9.332133   9.635113   7.229598
    40  H    2.626820   3.640509   3.524575   2.196852   1.080004
    41  H    4.616944   5.524628   5.456577   4.592099   2.150244
    42  H    5.397260   6.080190   6.110145   5.953495   3.388896
    43  H   12.421860  12.344418  12.427773  13.725862  12.294448
    44  H   12.693819  12.786873  12.715365  13.943502  12.257727
    45  H   11.073516  11.137246  11.051310  12.353256  10.819344
                   26         27         28         29         30
    26  C    0.000000
    27  C    1.377792   0.000000
    28  C   11.082111   9.732736   0.000000
    29  H    6.188057   5.346392   7.222799   0.000000
    30  H    8.444196   7.122011   2.935446   4.601686   0.000000
    31  H   11.538120  10.166697   3.016577   9.144865   4.623350
    32  H   10.249683   8.903004   3.935240   8.729154   4.583168
    33  H   11.775397  10.454595   5.276081  10.359236   6.067599
    34  H   11.535848  10.196221   4.443923   9.399752   5.062243
    35  H   10.221364   8.911515   5.130617   8.987027   5.024221
    36  H   11.518686  10.151448   2.163585   8.137691   3.599236
    37  H   10.222653   8.881334   2.175884   6.452615   2.070745
    38  H    8.431186   7.109398   5.021668   7.780890   4.352863
    39  H    6.097978   4.832686   6.634429   6.844393   4.966755
    40  H    2.140431   3.371903  12.709291   6.853969   9.981353
    41  H    1.083137   2.141344  11.810636   7.249593   9.246567
    42  H    2.144183   1.081533   9.427731   5.918061   6.956985
    43  H   11.832666  10.501699   1.093018   7.499495   3.485470
    44  H   11.632814  10.277522   1.092871   8.109244   3.835858
    45  H   10.320887   8.995145   1.092225   6.383247   2.429087
                   31         32         33         34         35
    31  H    0.000000
    32  H    1.742592   0.000000
    33  H    2.493177   2.502288   0.000000
    34  H    2.513347   3.081204   1.771172   0.000000
    35  H    3.076050   2.544029   1.772485   1.769739   0.000000
    36  H    2.301706   3.535318   3.802380   2.538702   3.706705
    37  H    3.534508   4.167442   4.932419   3.584478   4.213751
    38  H    3.579473   2.054603   3.486112   3.821656   2.423959
    39  H    5.906926   4.391528   5.828198   6.003096   4.490148
    40  H   13.449690  12.246074  13.792777  13.436612  12.207372
    41  H   12.044486  10.661220  12.123162  12.008550  10.593022
    42  H    9.563473   8.199012   9.700289   9.578814   8.189768
    43  H    3.811585   4.941616   6.010091   5.001570   5.928275
    44  H    2.547012   3.599146   5.005398   4.495747   5.187926
    45  H    3.707057   4.217577   5.926003   5.180953   5.573412
                   36         37         38         39         40
    36  H    0.000000
    37  H    1.743529   0.000000
    38  H    4.603317   4.560369   0.000000
    39  H    6.568322   5.969404   2.437598   0.000000
    40  H   13.250801  11.830346  10.477252   8.194806   0.000000
    41  H   12.171947  10.961945   8.782774   6.373787   2.457303
    42  H    9.734685   8.600804   6.336855   3.966689   4.273124
    43  H    2.495870   2.499792   6.047655   7.632017  13.367118
    44  H    2.511173   3.081446   5.051353   6.861180  13.331854
    45  H    3.077211   2.547295   5.002767   6.270357  11.889820
                   41         42         43         44         45
    41  H    0.000000
    42  H    2.482234   0.000000
    43  H   12.610155  10.268523   0.000000
    44  H   12.304512   9.894850   1.771042   0.000000
    45  H   11.079861   8.753411   1.772024   1.769795   0.000000
 Symmetry turned off by external request.
 Stoichiometry    C21H17F3N2O2
 Framework group  C1[X(C21H17F3N2O2)]
 Deg. of freedom   129
 Full point group                 C1      NOp   1
 Rotational constants (GHZ):      0.5539198      0.0670450      0.0611571
 Leave Link  202 at Mon Feb 17 13:03:13 2020, MaxMem=  6710886400 cpu:         0.2
 (Enter /opt/sys/apps/gaussian09/D.01/g09/l301.exe)
 Standard basis: 6-311++G(d,p) (5D, 7F)
 Ernie: Thresh=  0.10000D-02 Tol=  0.10000D-05 Strict=F.
   735 basis functions,  1161 primitive gaussians,   763 cartesian basis functions
   100 alpha electrons      100 beta electrons
       nuclear repulsion energy      2505.3579690934 Hartrees.
 IExCor=20419 DFT=T Ex+Corr=CAM-B3LYP ExCW=0 ScaHFX=  1.000000
 ScaDFX=  1.000000  1.000000  1.000000  0.810000 ScalE2=  1.000000  1.000000
 IRadAn=      0 IRanWt=     -1 IRanGd=            0 ICorTp=0 IEmpDi=131
  HFx wShort=  0.000000 wLong=  0.330000 cFull=  0.190000 cShort=  0.000000 cLong=  0.810000
  DFx wShort=  0.000000 wLong=  0.330000 cFull=  0.190000 cShort=  0.000000 cLong=  0.810000
 NAtoms=   45 NActive=   45 NUniq=   45 SFac= 1.00D+00 NAtFMM=   60 NAOKFM=F Big=F
 Integral buffers will be    131072 words long.
 Raffenetti 1 integral format.
 Two-electron integral symmetry is turned off.
 R6Disp:  Grimme-D3 Dispersion energy=       -0.0318292285 Hartrees.
 Nuclear repulsion after empirical dispersion term =     2505.3261398650 Hartrees.
 ------------------------------------------------------------------------------
 Polarizable Continuum Model (PCM)
 =================================
 Model                : C-PCM.
 Atomic radii         : UFF (Universal Force Field).
 Polarization charges : Total charges.
 Charge compensation  : None.
 Solution method      : On-the-fly selection.
 Cavity type          : Scaled VdW (van der Waals Surface) (Alpha=1.100).
 Cavity algorithm     : GePol (No added spheres)
                        Default sphere list used, NSphG=   45.
                        Lebedev-Laikov grids with approx.  5.0 points / Ang**2.
                        Smoothing algorithm: Karplus/York (Gamma=1.0000).
                        Polarization charges: spherical gaussians, with
                                              point-specific exponents (IZeta= 3).
                        Self-potential: point-specific (ISelfS= 7).
                        Self-field    : sphere-specific E.n sum rule (ISelfD= 2).
 1st derivatives      : Analytical E(r).r(x)/FMM algorithm (CHGder, D1EAlg=3).
                        Cavity 1st derivative terms included.
 Solvent              : Acetonitrile, Eps=  35.688000 Eps(inf)=   1.806874
 ------------------------------------------------------------------------------
 GePol: Number of generator spheres                  =      45
 GePol: Total number of spheres                      =      45
 GePol: Number of exposed spheres                    =      45 (100.00%)
 GePol: Number of points                             =    3346
 GePol: Average weight of points                     =       0.13
 GePol: Minimum weight of points                     =   0.12D-10
 GePol: Maximum weight of points                     =    0.20577
 GePol: Number of points with low weight             =     206
 GePol: Fraction of low-weight points (<1% of avg)   =       6.16%
 GePol: Cavity surface area                          =    424.401 Ang**2
 GePol: Cavity volume                                =    478.756 Ang**3
 Leave Link  301 at Mon Feb 17 13:03:13 2020, MaxMem=  6710886400 cpu:         2.4
 (Enter /opt/sys/apps/gaussian09/D.01/g09/l302.exe)
 NPDir=0 NMtPBC=     1 NCelOv=     1 NCel=       1 NClECP=     1 NCelD=      1
         NCelK=      1 NCelE2=     1 NClLst=     1 CellRange=     0.0.
 One-electron integrals computed using PRISM.
 NBasis=   735 RedAO= T EigKep=  1.09D-06  NBF=   735
 NBsUse=   726 1.00D-06 EigRej=  6.24D-07 NBFU=   726
 Precomputing XC quadrature grid using
 IXCGrd= 4 IRadAn=           0 IRanWt=          -1 IRanGd=           0 AccXCQ= 0.00D+00.
 Generated NRdTot=       0 NPtTot=           0 NUsed=           0 NTot=          32
 NSgBfM=   715   716   717   717   717 MxSgAt=    45 MxSgA2=    45.
 Leave Link  302 at Mon Feb 17 13:03:14 2020, MaxMem=  6710886400 cpu:        28.4
 (Enter /opt/sys/apps/gaussian09/D.01/g09/l308.exe)
 Leave Link  308 at Mon Feb 17 13:03:14 2020, MaxMem=  6710886400 cpu:         3.4
 (Enter /opt/sys/apps/gaussian09/D.01/g09/l303.exe)
 DipDrv:  MaxL=1.
 Leave Link  303 at Mon Feb 17 13:03:15 2020, MaxMem=  6710886400 cpu:         3.0
 (Enter /opt/sys/apps/gaussian09/D.01/g09/l401.exe)
 ExpMin= 3.60D-02 ExpMax= 1.14D+04 ExpMxC= 1.72D+03 IAcc=3 IRadAn=         5 AccDes= 0.00D+00
 Harris functional with IExCor=20419 and IRadAn=       5 diagonalized for initial guess.
 HarFok:  IExCor=20419 AccDes= 0.00D+00 IRadAn=         5 IDoV= 1 UseB2=F ITyADJ=14
 ICtDFT=  3500011 ScaDFX=  1.000000  1.000000  1.000000  1.000000
 FoFCou: FMM=F IPFlag=           0 FMFlag=      100000 FMFlg1=           0
         NFxFlg=           0 DoJE=T BraDBF=F KetDBF=T FulRan=T
         wScrn=  0.000000 ICntrl=     500 IOpCl=  0 I1Cent=   200000004 NGrid=           0
         NMat0=    1 NMatS0=      1 NMatT0=    0 NMatD0=    1 NMtDS0=    0 NMtDT0=    0
 Symmetry not used in FoFCou.
 Harris En= -1307.43989524742    
 JPrj=0 DoOrth=F DoCkMO=F.
 Leave Link  401 at Mon Feb 17 13:03:19 2020, MaxMem=  6710886400 cpu:        87.1
 (Enter /opt/sys/apps/gaussian09/D.01/g09/l502.exe)
 Closed shell SCF:
 Using DIIS extrapolation, IDIIS=  1040.
 Two-electron integral symmetry not used.
 IVT=     1788037 IEndB=     1788037 NGot=  6710886400 MDV=  6709697936
 LenX=  6709697936 LenY=  6709115004
 Requested convergence on RMS density matrix=1.00D-08 within 128 cycles.
 Requested convergence on MAX density matrix=1.00D-06.
 Requested convergence on             energy=1.00D-06.
 No special actions if energy rises.
 Fock matrices will be formed incrementally for  20 cycles.

 Cycle   1  Pass 1  IDiag  1:
 FoFJK:  IHMeth= 1 ICntrl=       0 DoSepK=T KAlg= 0 I1Cent=   0 FoldK=F
 IRaf=         1 NMat=   1 IRICut=       1 DoRegI=T DoRafI=F ISym2E= 0.
 FoFCou: FMM=F IPFlag=           0 FMFlag=      100000 FMFlg1=           0
         NFxFlg=           0 DoJE=T BraDBF=F KetDBF=F FulRan=T
         wScrn=  0.000000 ICntrl=     500 IOpCl=  0 I1Cent=           0 NGrid=           0
         NMat0=    1 NMatS0=      1 NMatT0=    0 NMatD0=    1 NMtDS0=    0 NMtDT0=    0
 Symmetry not used in FoFCou.
 Inv3:  Mode=1 IEnd=    33587148.
 Iteration    1 A*A^-1 deviation from unit magnitude is 1.08D-14 for   3338.
 Iteration    1 A*A^-1 deviation from orthogonality  is 5.54D-15 for   3338   2749.
 Iteration    1 A^-1*A deviation from unit magnitude is 1.08D-14 for   3338.
 Iteration    1 A^-1*A deviation from orthogonality  is 2.16D-15 for   2775   1766.
 E= -1368.09915131611    
 DIIS: error= 5.31D-02 at cycle   1 NSaved=   1.
 NSaved= 1 IEnMin= 1 EnMin= -1368.09915131611     IErMin= 1 ErrMin= 5.31D-02
 ErrMax= 5.31D-02  0.00D+00 EMaxC= 1.00D-01 BMatC= 2.73D+00 BMatP= 2.73D+00
 IDIUse=3 WtCom= 4.69D-01 WtEn= 5.31D-01
 Coeff-Com:  0.100D+01
 Coeff-En:   0.100D+01
 Coeff:      0.100D+01
 Gap=     0.274 Goal=   None    Shift=    0.000
 GapD=    0.274 DampG=1.000 DampE=0.500 DampFc=0.5000 IDamp=-1.
 Damping current iteration by 5.00D-01
 RMSDP=1.29D-02 MaxDP=8.86D-01              OVMax= 1.87D-01

 Cycle   2  Pass 1  IDiag  1:
 RMSU=  6.04D-03    CP:  9.54D-01
 E= -1368.45424073164     Delta-E=       -0.355089415527 Rises=F Damp=T
 DIIS: error= 2.33D-02 at cycle   2 NSaved=   2.
 NSaved= 2 IEnMin= 2 EnMin= -1368.45424073164     IErMin= 2 ErrMin= 2.33D-02
 ErrMax= 2.33D-02  0.00D+00 EMaxC= 1.00D-01 BMatC= 4.62D-01 BMatP= 2.73D+00
 IDIUse=3 WtCom= 7.67D-01 WtEn= 2.33D-01
 Coeff-Com: -0.385D+00 0.139D+01
 Coeff-En:   0.000D+00 0.100D+01
 Coeff:     -0.296D+00 0.130D+01
 Gap=     0.242 Goal=   None    Shift=    0.000
 RMSDP=7.14D-03 MaxDP=4.39D-01 DE=-3.55D-01 OVMax= 1.59D-01

 Cycle   3  Pass 1  IDiag  1:
 RMSU=  4.70D-03    CP:  8.62D-01  1.48D+00
 E= -1368.75498198617     Delta-E=       -0.300741254529 Rises=F Damp=F
 DIIS: error= 8.57D-03 at cycle   3 NSaved=   3.
 NSaved= 3 IEnMin= 3 EnMin= -1368.75498198617     IErMin= 3 ErrMin= 8.57D-03
 ErrMax= 8.57D-03  0.00D+00 EMaxC= 1.00D-01 BMatC= 8.27D-02 BMatP= 4.62D-01
 IDIUse=3 WtCom= 9.14D-01 WtEn= 8.57D-02
 Coeff-Com: -0.222D+00 0.512D+00 0.710D+00
 Coeff-En:   0.000D+00 0.000D+00 0.100D+01
 Coeff:     -0.203D+00 0.469D+00 0.735D+00
 Gap=     0.232 Goal=   None    Shift=    0.000
 RMSDP=3.34D-03 MaxDP=3.52D-01 DE=-3.01D-01 OVMax= 5.55D-02

 Cycle   4  Pass 1  IDiag  1:
 RMSU=  1.74D-03    CP:  8.10D-01  1.66D+00  8.59D-01
 E= -1368.80684090620     Delta-E=       -0.051858920034 Rises=F Damp=F
 DIIS: error= 2.61D-03 at cycle   4 NSaved=   4.
 NSaved= 4 IEnMin= 4 EnMin= -1368.80684090620     IErMin= 4 ErrMin= 2.61D-03
 ErrMax= 2.61D-03  0.00D+00 EMaxC= 1.00D-01 BMatC= 7.94D-03 BMatP= 8.27D-02
 IDIUse=3 WtCom= 9.74D-01 WtEn= 2.61D-02
 Coeff-Com: -0.759D-01 0.165D+00 0.351D+00 0.561D+00
 Coeff-En:   0.000D+00 0.000D+00 0.000D+00 0.100D+01
 Coeff:     -0.739D-01 0.160D+00 0.341D+00 0.572D+00
 Gap=     0.230 Goal=   None    Shift=    0.000
 RMSDP=6.40D-04 MaxDP=3.84D-02 DE=-5.19D-02 OVMax= 1.19D-02

 Cycle   5  Pass 1  IDiag  1:
 RMSU=  5.21D-04    CP:  8.09D-01  1.69D+00  8.95D-01  8.34D-01
 E= -1368.81242491970     Delta-E=       -0.005584013498 Rises=F Damp=F
 DIIS: error= 5.08D-04 at cycle   5 NSaved=   5.
 NSaved= 5 IEnMin= 5 EnMin= -1368.81242491970     IErMin= 5 ErrMin= 5.08D-04
 ErrMax= 5.08D-04  0.00D+00 EMaxC= 1.00D-01 BMatC= 1.78D-04 BMatP= 7.94D-03
 IDIUse=3 WtCom= 9.95D-01 WtEn= 5.08D-03
 Coeff-Com: -0.102D-02 0.285D-04 0.372D-01 0.123D+00 0.840D+00
 Coeff-En:   0.000D+00 0.000D+00 0.000D+00 0.000D+00 0.100D+01
 Coeff:     -0.101D-02 0.283D-04 0.370D-01 0.123D+00 0.841D+00
 Gap=     0.232 Goal=   None    Shift=    0.000
 RMSDP=4.49D-04 MaxDP=4.11D-02 DE=-5.58D-03 OVMax= 1.14D-02

 Cycle   6  Pass 1  IDiag  1:
 RMSU=  1.81D-04    CP:  8.01D-01  1.69D+00  9.05D-01  8.92D-01  1.22D+00
 E= -1368.81278192525     Delta-E=       -0.000357005554 Rises=F Damp=F
 DIIS: error= 3.70D-04 at cycle   6 NSaved=   6.
 NSaved= 6 IEnMin= 6 EnMin= -1368.81278192525     IErMin= 6 ErrMin= 3.70D-04
 ErrMax= 3.70D-04  0.00D+00 EMaxC= 1.00D-01 BMatC= 5.46D-05 BMatP= 1.78D-04
 IDIUse=3 WtCom= 9.96D-01 WtEn= 3.70D-03
 Coeff-Com:  0.140D-01-0.310D-01-0.524D-01-0.776D-01 0.309D+00 0.838D+00
 Coeff-En:   0.000D+00 0.000D+00 0.000D+00 0.000D+00 0.000D+00 0.100D+01
 Coeff:      0.140D-01-0.309D-01-0.522D-01-0.773D-01 0.308D+00 0.839D+00
 Gap=     0.233 Goal=   None    Shift=    0.000
 RMSDP=2.50D-04 MaxDP=2.57D-02 DE=-3.57D-04 OVMax= 9.88D-03

 Cycle   7  Pass 1  IDiag  1:
 RMSU=  6.55D-05    CP:  7.97D-01  1.70D+00  9.11D-01  9.41D-01  1.41D+00
                    CP:  1.09D+00
 E= -1368.81293395315     Delta-E=       -0.000152027895 Rises=F Damp=F
 DIIS: error= 2.29D-04 at cycle   7 NSaved=   7.
 NSaved= 7 IEnMin= 7 EnMin= -1368.81293395315     IErMin= 7 ErrMin= 2.29D-04
 ErrMax= 2.29D-04  0.00D+00 EMaxC= 1.00D-01 BMatC= 9.57D-06 BMatP= 5.46D-05
 IDIUse=3 WtCom= 9.98D-01 WtEn= 2.29D-03
 Coeff-Com:  0.351D-02-0.740D-02-0.172D-01-0.393D-01-0.372D-01 0.231D+00
 Coeff-Com:  0.867D+00
 Coeff-En:   0.000D+00 0.000D+00 0.000D+00 0.000D+00 0.000D+00 0.000D+00
 Coeff-En:   0.100D+01
 Coeff:      0.350D-02-0.738D-02-0.172D-01-0.392D-01-0.371D-01 0.230D+00
 Coeff:      0.867D+00
 Gap=     0.234 Goal=   None    Shift=    0.000
 RMSDP=7.16D-05 MaxDP=6.99D-03 DE=-1.52D-04 OVMax= 6.38D-03

 Cycle   8  Pass 1  IDiag  1:
 RMSU=  3.10D-05    CP:  7.97D-01  1.71D+00  9.11D-01  9.52D-01  1.49D+00
                    CP:  1.26D+00  1.34D+00
 E= -1368.81298211682     Delta-E=       -0.000048163668 Rises=F Damp=F
 DIIS: error= 1.50D-04 at cycle   8 NSaved=   8.
 NSaved= 8 IEnMin= 8 EnMin= -1368.81298211682     IErMin= 8 ErrMin= 1.50D-04
 ErrMax= 1.50D-04  0.00D+00 EMaxC= 1.00D-01 BMatC= 3.32D-06 BMatP= 9.57D-06
 IDIUse=3 WtCom= 9.98D-01 WtEn= 1.50D-03
 Coeff-Com: -0.413D-02 0.924D-02 0.149D-01 0.142D-01-0.123D+00-0.217D+00
 Coeff-Com:  0.280D+00 0.103D+01
 Coeff-En:   0.000D+00 0.000D+00 0.000D+00 0.000D+00 0.000D+00 0.000D+00
 Coeff-En:   0.000D+00 0.100D+01
 Coeff:     -0.412D-02 0.922D-02 0.149D-01 0.142D-01-0.123D+00-0.217D+00
 Coeff:      0.280D+00 0.103D+01
 Gap=     0.234 Goal=   None    Shift=    0.000
 RMSDP=5.75D-05 MaxDP=6.25D-03 DE=-4.82D-05 OVMax= 6.13D-03

 Cycle   9  Pass 1  IDiag  1:
 RMSU=  2.37D-05    CP:  7.98D-01  1.71D+00  9.12D-01  9.54D-01  1.54D+00
                    CP:  1.38D+00  1.78D+00  1.66D+00
 E= -1368.81300810919     Delta-E=       -0.000025992376 Rises=F Damp=F
 DIIS: error= 7.20D-05 at cycle   9 NSaved=   9.
 NSaved= 9 IEnMin= 9 EnMin= -1368.81300810919     IErMin= 9 ErrMin= 7.20D-05
 ErrMax= 7.20D-05  0.00D+00 EMaxC= 1.00D-01 BMatC= 1.14D-06 BMatP= 3.32D-06
 IDIUse=1 WtCom= 1.00D+00 WtEn= 0.00D+00
 Coeff-Com: -0.232D-02 0.503D-02 0.104D-01 0.149D-01-0.294D-01-0.141D+00
 Coeff-Com: -0.184D+00 0.356D+00 0.970D+00
 Coeff:     -0.232D-02 0.503D-02 0.104D-01 0.149D-01-0.294D-01-0.141D+00
 Coeff:     -0.184D+00 0.356D+00 0.970D+00
 Gap=     0.234 Goal=   None    Shift=    0.000
 RMSDP=3.37D-05 MaxDP=3.71D-03 DE=-2.60D-05 OVMax= 3.75D-03

 Cycle  10  Pass 1  IDiag  1:
 RMSU=  8.13D-06    CP:  7.98D-01  1.71D+00  9.13D-01  9.57D-01  1.56D+00
                    CP:  1.42D+00  2.03D+00  2.17D+00  1.52D+00
 E= -1368.81301576649     Delta-E=       -0.000007657298 Rises=F Damp=F
 DIIS: error= 3.25D-05 at cycle  10 NSaved=  10.
 NSaved=10 IEnMin=10 EnMin= -1368.81301576649     IErMin=10 ErrMin= 3.25D-05
 ErrMax= 3.25D-05  0.00D+00 EMaxC= 1.00D-01 BMatC= 2.24D-07 BMatP= 1.14D-06
 IDIUse=1 WtCom= 1.00D+00 WtEn= 0.00D+00
 Coeff-Com:  0.714D-03-0.161D-02-0.168D-02-0.102D-02 0.297D-01 0.246D-01
 Coeff-Com: -0.143D+00-0.177D+00 0.306D+00 0.964D+00
 Coeff:      0.714D-03-0.161D-02-0.168D-02-0.102D-02 0.297D-01 0.246D-01
 Coeff:     -0.143D+00-0.177D+00 0.306D+00 0.964D+00
 Gap=     0.234 Goal=   None    Shift=    0.000
 RMSDP=1.62D-05 MaxDP=1.31D-03 DE=-7.66D-06 OVMax= 1.77D-03

 Cycle  11  Pass 1  IDiag  1:
 RMSU=  5.43D-06    CP:  7.98D-01  1.71D+00  9.13D-01  9.57D-01  1.57D+00
                    CP:  1.43D+00  2.13D+00  2.39D+00  1.88D+00  1.34D+00
 E= -1368.81301727833     Delta-E=       -0.000001511836 Rises=F Damp=F
 DIIS: error= 1.06D-05 at cycle  11 NSaved=  11.
 NSaved=11 IEnMin=11 EnMin= -1368.81301727833     IErMin=11 ErrMin= 1.06D-05
 ErrMax= 1.06D-05  0.00D+00 EMaxC= 1.00D-01 BMatC= 3.86D-08 BMatP= 2.24D-07
 IDIUse=1 WtCom= 1.00D+00 WtEn= 0.00D+00
 Coeff-Com:  0.496D-03-0.108D-02-0.198D-02-0.283D-02 0.986D-02 0.296D-01
 Coeff-Com:  0.138D-01-0.100D+00-0.144D+00 0.185D+00 0.101D+01
 Coeff:      0.496D-03-0.108D-02-0.198D-02-0.283D-02 0.986D-02 0.296D-01
 Coeff:      0.138D-01-0.100D+00-0.144D+00 0.185D+00 0.101D+01
 Gap=     0.234 Goal=   None    Shift=    0.000
 RMSDP=7.15D-06 MaxDP=4.73D-04 DE=-1.51D-06 OVMax= 6.31D-04

 Cycle  12  Pass 1  IDiag  1:
 RMSU=  2.04D-06    CP:  7.98D-01  1.71D+00  9.13D-01  9.58D-01  1.57D+00
                    CP:  1.45D+00  2.17D+00  2.43D+00  2.03D+00  1.42D+00
                    CP:  1.49D+00
 E= -1368.81301749913     Delta-E=       -0.000000220807 Rises=F Damp=F
 DIIS: error= 4.36D-06 at cycle  12 NSaved=  12.
 NSaved=12 IEnMin=12 EnMin= -1368.81301749913     IErMin=12 ErrMin= 4.36D-06
 ErrMax= 4.36D-06  0.00D+00 EMaxC= 1.00D-01 BMatC= 9.49D-09 BMatP= 3.86D-08
 IDIUse=1 WtCom= 1.00D+00 WtEn= 0.00D+00
 Coeff-Com: -0.105D-04 0.350D-04-0.188D-03-0.655D-03-0.343D-02 0.421D-02
 Coeff-Com:  0.393D-01 0.203D-02-0.122D+00-0.147D+00 0.388D+00 0.841D+00
 Coeff:     -0.105D-04 0.350D-04-0.188D-03-0.655D-03-0.343D-02 0.421D-02
 Coeff:      0.393D-01 0.203D-02-0.122D+00-0.147D+00 0.388D+00 0.841D+00
 Gap=     0.234 Goal=   None    Shift=    0.000
 RMSDP=2.42D-06 MaxDP=1.64D-04 DE=-2.21D-07 OVMax= 1.97D-04

 Cycle  13  Pass 1  IDiag  1:
 RMSU=  9.25D-07    CP:  7.98D-01  1.71D+00  9.13D-01  9.58D-01  1.58D+00
                    CP:  1.45D+00  2.18D+00  2.44D+00  2.08D+00  1.50D+00
                    CP:  1.65D+00  1.20D+00
 E= -1368.81301753018     Delta-E=       -0.000000031044 Rises=F Damp=F
 DIIS: error= 1.21D-06 at cycle  13 NSaved=  13.
 NSaved=13 IEnMin=13 EnMin= -1368.81301753018     IErMin=13 ErrMin= 1.21D-06
 ErrMax= 1.21D-06  0.00D+00 EMaxC= 1.00D-01 BMatC= 8.48D-10 BMatP= 9.49D-09
 IDIUse=1 WtCom= 1.00D+00 WtEn= 0.00D+00
 Coeff-Com: -0.550D-04 0.121D-03 0.196D-03 0.144D-03-0.182D-02-0.258D-02
 Coeff-Com:  0.751D-02 0.119D-01-0.104D-01-0.525D-01-0.357D-01 0.164D+00
 Coeff-Com:  0.919D+00
 Coeff:     -0.550D-04 0.121D-03 0.196D-03 0.144D-03-0.182D-02-0.258D-02
 Coeff:      0.751D-02 0.119D-01-0.104D-01-0.525D-01-0.357D-01 0.164D+00
 Coeff:      0.919D+00
 Gap=     0.234 Goal=   None    Shift=    0.000
 RMSDP=6.34D-07 MaxDP=3.76D-05 DE=-3.10D-08 OVMax= 4.58D-05

 Cycle  14  Pass 1  IDiag  1:
 RMSU=  3.36D-07    CP:  7.98D-01  1.71D+00  9.13D-01  9.58D-01  1.58D+00
                    CP:  1.45D+00  2.18D+00  2.44D+00  2.08D+00  1.49D+00
                    CP:  1.69D+00  1.29D+00  1.24D+00
 E= -1368.81301753304     Delta-E=       -0.000000002864 Rises=F Damp=F
 DIIS: error= 5.91D-07 at cycle  14 NSaved=  14.
 NSaved=14 IEnMin=14 EnMin= -1368.81301753304     IErMin=14 ErrMin= 5.91D-07
 ErrMax= 5.91D-07  0.00D+00 EMaxC= 1.00D-01 BMatC= 1.88D-10 BMatP= 8.48D-10
 IDIUse=1 WtCom= 1.00D+00 WtEn= 0.00D+00
 Coeff-Com: -0.720D-05 0.147D-04 0.634D-04 0.975D-04 0.940D-04-0.130D-02
 Coeff-Com: -0.439D-02 0.243D-02 0.170D-01 0.118D-01-0.703D-01-0.105D+00
 Coeff-Com:  0.276D+00 0.873D+00
 Coeff:     -0.720D-05 0.147D-04 0.634D-04 0.975D-04 0.940D-04-0.130D-02
 Coeff:     -0.439D-02 0.243D-02 0.170D-01 0.118D-01-0.703D-01-0.105D+00
 Coeff:      0.276D+00 0.873D+00
 Gap=     0.234 Goal=   None    Shift=    0.000
 RMSDP=2.78D-07 MaxDP=1.90D-05 DE=-2.86D-09 OVMax= 1.34D-05

 Cycle  15  Pass 1  IDiag  1:
 RMSU=  1.51D-07    CP:  7.98D-01  1.71D+00  9.13D-01  9.58D-01  1.58D+00
                    CP:  1.45D+00  2.18D+00  2.44D+00  2.08D+00  1.48D+00
                    CP:  1.70D+00  1.32D+00  1.36D+00  1.31D+00
 E= -1368.81301753369     Delta-E=       -0.000000000647 Rises=F Damp=F
 DIIS: error= 3.00D-07 at cycle  15 NSaved=  15.
 NSaved=15 IEnMin=15 EnMin= -1368.81301753369     IErMin=15 ErrMin= 3.00D-07
 ErrMax= 3.00D-07  0.00D+00 EMaxC= 1.00D-01 BMatC= 3.00D-11 BMatP= 1.88D-10
 IDIUse=1 WtCom= 1.00D+00 WtEn= 0.00D+00
 Coeff-Com:  0.593D-05-0.134D-04-0.111D-04 0.101D-04 0.323D-03 0.185D-04
 Coeff-Com: -0.231D-02-0.109D-02 0.660D-02 0.110D-01-0.145D-01-0.632D-01
 Coeff-Com: -0.576D-01 0.223D+00 0.898D+00
 Coeff:      0.593D-05-0.134D-04-0.111D-04 0.101D-04 0.323D-03 0.185D-04
 Coeff:     -0.231D-02-0.109D-02 0.660D-02 0.110D-01-0.145D-01-0.632D-01
 Coeff:     -0.576D-01 0.223D+00 0.898D+00
 Gap=     0.234 Goal=   None    Shift=    0.000
 RMSDP=1.30D-07 MaxDP=1.51D-05 DE=-6.47D-10 OVMax= 6.07D-06

 Cycle  16  Pass 1  IDiag  1:
 RMSU=  5.85D-08    CP:  7.98D-01  1.71D+00  9.13D-01  9.58D-01  1.58D+00
                    CP:  1.45D+00  2.18D+00  2.44D+00  2.08D+00  1.47D+00
                    CP:  1.70D+00  1.33D+00  1.39D+00  1.40D+00  1.25D+00
 E= -1368.81301753383     Delta-E=       -0.000000000146 Rises=F Damp=F
 DIIS: error= 1.17D-07 at cycle  16 NSaved=  16.
 NSaved=16 IEnMin=16 EnMin= -1368.81301753383     IErMin=16 ErrMin= 1.17D-07
 ErrMax= 1.17D-07  0.00D+00 EMaxC= 1.00D-01 BMatC= 7.72D-12 BMatP= 3.00D-11
 IDIUse=1 WtCom= 1.00D+00 WtEn= 0.00D+00
 Coeff-Com:  0.197D-05-0.424D-05-0.135D-04-0.120D-04 0.614D-04 0.244D-03
 Coeff-Com:  0.296D-03-0.878D-03-0.173D-02 0.505D-03 0.123D-01 0.222D-02
 Coeff-Com: -0.664D-01-0.143D+00 0.275D+00 0.921D+00
 Coeff:      0.197D-05-0.424D-05-0.135D-04-0.120D-04 0.614D-04 0.244D-03
 Coeff:      0.296D-03-0.878D-03-0.173D-02 0.505D-03 0.123D-01 0.222D-02
 Coeff:     -0.664D-01-0.143D+00 0.275D+00 0.921D+00
 Gap=     0.234 Goal=   None    Shift=    0.000
 RMSDP=7.23D-08 MaxDP=7.39D-06 DE=-1.46D-10 OVMax= 2.89D-06

 Cycle  17  Pass 1  IDiag  1:
 RMSU=  2.69D-08    CP:  7.98D-01  1.71D+00  9.13D-01  9.58D-01  1.58D+00
                    CP:  1.45D+00  2.18D+00  2.44D+00  2.08D+00  1.47D+00
                    CP:  1.70D+00  1.33D+00  1.39D+00  1.44D+00  1.43D+00
                    CP:  1.23D+00
 E= -1368.81301753380     Delta-E=        0.000000000035 Rises=F Damp=F
 DIIS: error= 5.49D-08 at cycle  17 NSaved=  17.
 NSaved=17 IEnMin=16 EnMin= -1368.81301753383     IErMin=17 ErrMin= 5.49D-08
 ErrMax= 5.49D-08  0.00D+00 EMaxC= 1.00D-01 BMatC= 1.03D-12 BMatP= 7.72D-12
 IDIUse=1 WtCom= 1.00D+00 WtEn= 0.00D+00
 Coeff-Com: -0.629D-06 0.144D-05-0.700D-06-0.365D-05-0.468D-04 0.502D-04
 Coeff-Com:  0.471D-03 0.519D-04-0.155D-02-0.210D-02 0.513D-02 0.111D-01
 Coeff-Com:  0.347D-02-0.725D-01-0.111D+00 0.162D+00 0.100D+01
 Coeff:     -0.629D-06 0.144D-05-0.700D-06-0.365D-05-0.468D-04 0.502D-04
 Coeff:      0.471D-03 0.519D-04-0.155D-02-0.210D-02 0.513D-02 0.111D-01
 Coeff:      0.347D-02-0.725D-01-0.111D+00 0.162D+00 0.100D+01
 Gap=     0.234 Goal=   None    Shift=    0.000
 RMSDP=2.44D-08 MaxDP=1.89D-06 DE= 3.55D-11 OVMax= 1.25D-06

 Cycle  18  Pass 1  IDiag  1:
 RMSU=  8.83D-09    CP:  7.98D-01  1.71D+00  9.13D-01  9.58D-01  1.58D+00
                    CP:  1.45D+00  2.18D+00  2.44D+00  2.08D+00  1.47D+00
                    CP:  1.70D+00  1.33D+00  1.38D+00  1.44D+00  1.49D+00
                    CP:  1.33D+00  1.35D+00
 E= -1368.81301753398     Delta-E=       -0.000000000183 Rises=F Damp=F
 DIIS: error= 2.00D-08 at cycle  18 NSaved=  18.
 NSaved=18 IEnMin=18 EnMin= -1368.81301753398     IErMin=18 ErrMin= 2.00D-08
 ErrMax= 2.00D-08  0.00D+00 EMaxC= 1.00D-01 BMatC= 1.70D-13 BMatP= 1.03D-12
 IDIUse=1 WtCom= 1.00D+00 WtEn= 0.00D+00
 Coeff-Com: -0.320D-06 0.707D-06 0.134D-05 0.968D-07-0.221D-04-0.189D-04
 Coeff-Com:  0.825D-04 0.164D-03-0.178D-03-0.665D-03-0.358D-03 0.280D-02
 Coeff-Com:  0.123D-01-0.198D-02-0.786D-01-0.958D-01 0.298D+00 0.865D+00
 Coeff:     -0.320D-06 0.707D-06 0.134D-05 0.968D-07-0.221D-04-0.189D-04
 Coeff:      0.825D-04 0.164D-03-0.178D-03-0.665D-03-0.358D-03 0.280D-02
 Coeff:      0.123D-01-0.198D-02-0.786D-01-0.958D-01 0.298D+00 0.865D+00
 Gap=     0.234 Goal=   None    Shift=    0.000
 RMSDP=9.14D-09 MaxDP=1.57D-06 DE=-1.83D-10 OVMax= 4.91D-07

 Cycle  19  Pass 1  IDiag  1:
 RMSU=  3.49D-09    CP:  7.98D-01  1.71D+00  9.13D-01  9.58D-01  1.58D+00
                    CP:  1.45D+00  2.18D+00  2.44D+00  2.08D+00  1.47D+00
                    CP:  1.70D+00  1.33D+00  1.38D+00  1.44D+00  1.50D+00
                    CP:  1.36D+00  1.48D+00  1.22D+00
 E= -1368.81301753382     Delta-E=        0.000000000161 Rises=F Damp=F
 DIIS: error= 6.31D-09 at cycle  19 NSaved=  19.
 NSaved=19 IEnMin=18 EnMin= -1368.81301753398     IErMin=19 ErrMin= 6.31D-09
 ErrMax= 6.31D-09  0.00D+00 EMaxC= 1.00D-01 BMatC= 2.66D-14 BMatP= 1.70D-13
 IDIUse=1 WtCom= 1.00D+00 WtEn= 0.00D+00
 Coeff-Com: -0.473D-07 0.935D-07 0.545D-06 0.843D-06 0.213D-06-0.143D-04
 Coeff-Com: -0.409D-04 0.386D-04 0.150D-03 0.685D-04-0.798D-03-0.855D-03
 Coeff-Com:  0.257D-02 0.834D-02-0.193D-02-0.379D-01-0.813D-01 0.221D+00
 Coeff-Com:  0.890D+00
 Coeff:     -0.473D-07 0.935D-07 0.545D-06 0.843D-06 0.213D-06-0.143D-04
 Coeff:     -0.409D-04 0.386D-04 0.150D-03 0.685D-04-0.798D-03-0.855D-03
 Coeff:      0.257D-02 0.834D-02-0.193D-02-0.379D-01-0.813D-01 0.221D+00
 Coeff:      0.890D+00
 Gap=     0.234 Goal=   None    Shift=    0.000
 RMSDP=4.57D-09 MaxDP=3.47D-07 DE= 1.61D-10 OVMax= 1.88D-07

 Error on total polarization charges =  0.01935
 SCF Done:  E(RCAM-B3LYP) =  -1368.81301753     A.U. after   19 cycles
            NFock= 19  Conv=0.46D-08     -V/T= 2.0036
 KE= 1.363866926567D+03 PE=-8.214913522145D+03 EE= 2.976907438180D+03
 Leave Link  502 at Mon Feb 17 13:08:28 2020, MaxMem=  6710886400 cpu:      7347.5
 (Enter /opt/sys/apps/gaussian09/D.01/g09/l801.exe)
 DoSCS=F DFT=T ScalE2(SS,OS)=  1.000000  1.000000
 ExpMin= 3.60D-02 ExpMax= 1.14D+04 ExpMxC= 1.72D+03 IAcc=3 IRadAn=         5 AccDes= 0.00D+00
 HarFok:  IExCor=  205 AccDes= 0.00D+00 IRadAn=         5 IDoV=-2 UseB2=F ITyADJ=14
 ICtDFT= 12500011 ScaDFX=  1.000000  1.000000  1.000000  1.000000
 Largest valence mixing into a core orbital is  5.29D-05
 Largest core mixing into a valence orbital is  1.46D-05
 Range of M.O.s used for correlation:    29   726
 NBasis=   735 NAE=   100 NBE=   100 NFC=    28 NFV=     0
 NROrb=    698 NOA=    72 NOB=    72 NVA=   626 NVB=   626

 **** Warning!!: The largest alpha MO coefficient is  0.15493351D+03

 Leave Link  801 at Mon Feb 17 13:08:29 2020, MaxMem=  6710886400 cpu:         6.3
 (Enter /opt/sys/apps/gaussian09/D.01/g09/l914.exe)
 RHF ground state
 MDV=  6710886400 DFT=T DoStab=F Mixed=T DoRPA=T DoScal=F NonHer=T
 Would need an additional        215131200000 words for in-memory AO integral storage.
 NEqPCM:  Using non-equilibrium solvation (IEInf=1, Eps=  35.6880, EpsInf=   1.8069)
 Inv3:  Mode=1 IEnd=    33587148.
 Iteration    1 A*A^-1 deviation from unit magnitude is 1.08D-14 for   3338.
 Iteration    1 A*A^-1 deviation from orthogonality  is 5.54D-15 for   3338   2749.
 Iteration    1 A^-1*A deviation from unit magnitude is 1.08D-14 for   3338.
 Iteration    1 A^-1*A deviation from orthogonality  is 2.16D-15 for   2775   1766.
 Making orbital integer symmetry assigments:
    40 initial guesses have been made.
 Convergence on wavefunction:    0.000001000000000
 Davidson Disk Diagonalization:  ConvIn= 1.00D-06 SkipCon=T Conv= 1.00D-06.
 Max sub-space:   200 roots to seek:    40 dimension of matrix:        90144
 Iteration     1 Dimension    40 NMult     0 NNew     40
 CISAX will form    40 AO SS matrices at one time.
 NMat=    40 NSing=    40 JSym2X= 0.
 FoFJK:  IHMeth= 1 ICntrl=       0 DoSepK=T KAlg= 0 I1Cent=   0 FoldK=F
 IRaf=         1 NMat=  80 IRICut=       1 DoRegI=T DoRafI=F ISym2E= 0.
 New state      2 was old state      3
 New state      3 was old state     23
 New state      4 was old state      2
 New state      5 was old state     13
 New state      6 was old state     15
 New state      7 was old state      8
 New state      8 was old state      4
 New state      9 was old state     11
 New state     10 was old state     14
 Excitation Energies [eV] at current iteration:
 Root      1 :     3.335100432189510
 Root      2 :     4.487302793467282
 Root      3 :     4.780843012378639
 Root      4 :     4.970929551966812
 Root      5 :     5.052769589117706
 Root      6 :     5.296907392475743
 Root      7 :     5.481656201937315
 Root      8 :     5.633376686589862
 Root      9 :     5.773184300320843
 Root     10 :     5.805335718120128
 Root     11 :     6.076573405279414
 Root     12 :     6.243224327290972
 Root     13 :     6.314051186799452
 Root     14 :     6.376078663895192
 Root     15 :     6.585145661261421
 Root     16 :     6.682508725680943
 Root     17 :     6.716747685070262
 Root     18 :     6.820166767027666
 Root     19 :     6.895553728139174
 Root     20 :     7.140478708400610
 Root     21 :     7.175115572056369
 Root     22 :     7.225394967986599
 Root     23 :     7.391904803867976
 Root     24 :     7.410024736426855
 Root     25 :     7.472420807253888
 Root     26 :     7.485858455685049
 Root     27 :     7.533974663828992
 Root     28 :     7.659247803591056
 Root     29 :     7.744253211502294
 Root     30 :     7.769171536192930
 Root     31 :     7.944417473490152
 Root     32 :     7.978970299735749
 Root     33 :     8.045165049893594
 Root     34 :     8.098913209249016
 Root     35 :     8.216148405064645
 Root     36 :     8.360261963833407
 Root     37 :     8.388598452088850
 Root     38 :     8.422708966608303
 Root     39 :     8.573331135367541
 Root     40 :     8.765230223385061
 Iteration     2 Dimension    60 NMult    40 NNew     20
 CISAX will form    20 AO SS matrices at one time.
 NMat=    20 NSing=    20 JSym2X= 0.
 Root      1 not converged, maximum delta is    0.037640950775801
 Root      2 not converged, maximum delta is    0.066973779478957
 New state      3 was old state      5
 Root      3 not converged, maximum delta is    0.462776840541545
 New state      4 was old state      3
 Root      4 not converged, maximum delta is    0.435928163632962
 New state      5 was old state      4
 Root      5 not converged, maximum delta is    0.171535619560749
 Root      6 not converged, maximum delta is    0.245594373285884
 Root      7 not converged, maximum delta is    0.199878963438410
 New state      8 was old state      9
 Root      8 not converged, maximum delta is    0.181485903554047
 New state      9 was old state      8
 Root      9 not converged, maximum delta is    0.047219805441232
 Root     10 not converged, maximum delta is    0.119099226157195
 Excitation Energies [eV] at current iteration:
 Root      1 :     2.762162179708969   Change is   -0.572938252480541
 Root      2 :     4.017076407183227   Change is   -0.470226386284054
 Root      3 :     4.097940689620571   Change is   -0.954828899497136
 Root      4 :     4.261240544484108   Change is   -0.519602467894531
 Root      5 :     4.600122123370845   Change is   -0.370807428595966
 Root      6 :     4.805497575762745   Change is   -0.491409816712999
 Root      7 :     4.912302397020241   Change is   -0.569353804917074
 Root      8 :     5.228203431945566   Change is   -0.544980868375277
 Root      9 :     5.383884789240660   Change is   -0.249491897349202
 Root     10 :     5.394969454734213   Change is   -0.410366263385916
 Iteration     3 Dimension    80 NMult    60 NNew     20
 CISAX will form    20 AO SS matrices at one time.
 NMat=    20 NSing=    20 JSym2X= 0.
 Root      1 not converged, maximum delta is    0.011905878101649
 Root      2 not converged, maximum delta is    0.388325454848514
 Root      3 not converged, maximum delta is    0.402134607116041
 Root      4 not converged, maximum delta is    0.088678490740086
 Root      5 not converged, maximum delta is    0.047850965528002
 Root      6 not converged, maximum delta is    0.076259779668365
 Root      7 not converged, maximum delta is    0.118784532562989
 Root      8 not converged, maximum delta is    0.141917223795273
 New state      9 was old state     10
 Root      9 not converged, maximum delta is    0.106210799223864
 New state     10 was old state      9
 Root     10 not converged, maximum delta is    0.021162246342493
 Excitation Energies [eV] at current iteration:
 Root      1 :     2.720245177862966   Change is   -0.041917001846002
 Root      2 :     3.969907410590162   Change is   -0.047168996593065
 Root      3 :     3.992917047397069   Change is   -0.105023642223501
 Root      4 :     4.215199798693033   Change is   -0.046040745791076
 Root      5 :     4.558540434489443   Change is   -0.041581688881402
 Root      6 :     4.717185067087188   Change is   -0.088312508675557
 Root      7 :     4.826186404113104   Change is   -0.086115992907137
 Root      8 :     5.143454430331134   Change is   -0.084749001614433
 Root      9 :     5.333210287212334   Change is   -0.061759167521878
 Root     10 :     5.372695681624723   Change is   -0.011189107615938
 Iteration     4 Dimension   100 NMult    80 NNew     20
 CISAX will form    20 AO SS matrices at one time.
 NMat=    20 NSing=    20 JSym2X= 0.
 Root      1 not converged, maximum delta is    0.004938862353030
 Root      2 not converged, maximum delta is    0.008411096388982
 Root      3 not converged, maximum delta is    0.008843388565195
 Root      4 not converged, maximum delta is    0.006492047086585
 Root      5 not converged, maximum delta is    0.013440901063505
 Root      6 not converged, maximum delta is    0.011629827564247
 Root      7 not converged, maximum delta is    0.039210780217358
 Root      8 not converged, maximum delta is    0.064436840652844
 Root      9 not converged, maximum delta is    0.084709152898795
 Root     10 not converged, maximum delta is    0.005649342474052
 Excitation Energies [eV] at current iteration:
 Root      1 :     2.714157688264054   Change is   -0.006087489598912
 Root      2 :     3.963084765290738   Change is   -0.006822645299425
 Root      3 :     3.986397093969331   Change is   -0.006519953427739
 Root      4 :     4.211880241995074   Change is   -0.003319556697960
 Root      5 :     4.553127334574828   Change is   -0.005413099914615
 Root      6 :     4.707105986462376   Change is   -0.010079080624812
 Root      7 :     4.803671143552894   Change is   -0.022515260560210
 Root      8 :     5.113340752470416   Change is   -0.030113677860718
 Root      9 :     5.306432304248697   Change is   -0.026777982963637
 Root     10 :     5.371744761375627   Change is   -0.000950920249096
 Iteration     5 Dimension   120 NMult   100 NNew     20
 CISAX will form    20 AO SS matrices at one time.
 NMat=    20 NSing=    20 JSym2X= 0.
 Root      1 not converged, maximum delta is    0.001013178282164
 Root      2 not converged, maximum delta is    0.001876635985092
 Root      3 not converged, maximum delta is    0.001478016970914
 Root      4 not converged, maximum delta is    0.001592467943370
 Root      5 not converged, maximum delta is    0.003205170310936
 Root      6 not converged, maximum delta is    0.003308165630145
 Root      7 not converged, maximum delta is    0.011979119542965
 Root      8 not converged, maximum delta is    0.021396818826423
 Root      9 not converged, maximum delta is    0.040222722242863
 Root     10 not converged, maximum delta is    0.004635835945916
 Excitation Energies [eV] at current iteration:
 Root      1 :     2.713731898933721   Change is   -0.000425789330333
 Root      2 :     3.962498927517674   Change is   -0.000585837773063
 Root      3 :     3.985848769089808   Change is   -0.000548324879523
 Root      4 :     4.211572136465718   Change is   -0.000308105529355
 Root      5 :     4.552480397457479   Change is   -0.000646937117349
 Root      6 :     4.706316244105722   Change is   -0.000789742356655
 Root      7 :     4.800241490829555   Change is   -0.003429652723340
 Root      8 :     5.104757420623132   Change is   -0.008583331847284
 Root      9 :     5.298192025668264   Change is   -0.008240278580434
 Root     10 :     5.371627123000732   Change is   -0.000117638374896
 Iteration     6 Dimension   140 NMult   120 NNew     20
 CISAX will form    20 AO SS matrices at one time.
 NMat=    20 NSing=    20 JSym2X= 0.
 Root      1 not converged, maximum delta is    0.000268590622716
 Root      2 not converged, maximum delta is    0.000490280862190
 Root      3 not converged, maximum delta is    0.000393580321646
 Root      4 not converged, maximum delta is    0.000602599414727
 Root      5 not converged, maximum delta is    0.000819972827624
 Root      6 not converged, maximum delta is    0.000782871002528
 Root      7 not converged, maximum delta is    0.002476462075304
 Root      8 not converged, maximum delta is    0.005415575596709
 Root      9 not converged, maximum delta is    0.008885242466931
 Root     10 not converged, maximum delta is    0.002755201750640
 Excitation Energies [eV] at current iteration:
 Root      1 :     2.713705652656230   Change is   -0.000026246277492
 Root      2 :     3.962451549265124   Change is   -0.000047378252550
 Root      3 :     3.985799442388148   Change is   -0.000049326701660
 Root      4 :     4.211543562169807   Change is   -0.000028574295912
 Root      5 :     4.552413246801280   Change is   -0.000067150656200
 Root      6 :     4.706246180919636   Change is   -0.000070063186085
 Root      7 :     4.799863571107513   Change is   -0.000377919722042
 Root      8 :     5.103499654426286   Change is   -0.001257766196847
 Root      9 :     5.297031496868430   Change is   -0.001160528799833
 Root     10 :     5.371606252607990   Change is   -0.000020870392741
 Iteration     7 Dimension   160 NMult   140 NNew     20
 CISAX will form    20 AO SS matrices at one time.
 NMat=    20 NSing=    20 JSym2X= 0.
 Root      1 not converged, maximum delta is    0.000052223852075
 Root      2 not converged, maximum delta is    0.000093140214626
 Root      3 not converged, maximum delta is    0.000082430590277
 Root      4 not converged, maximum delta is    0.000105852725393
 Root      5 not converged, maximum delta is    0.000151432548975
 Root      6 not converged, maximum delta is    0.000093838026041
 Root      7 not converged, maximum delta is    0.000443411377271
 Root      8 not converged, maximum delta is    0.000739834491675
 Root      9 not converged, maximum delta is    0.001586288090538
 Root     10 not converged, maximum delta is    0.001137208602810
 Excitation Energies [eV] at current iteration:
 Root      1 :     2.713704120867183   Change is   -0.000001531789046
 Root      2 :     3.962448342272249   Change is   -0.000003206992875
 Root      3 :     3.985796144947445   Change is   -0.000003297440702
 Root      4 :     4.211540965407336   Change is   -0.000002596762471
 Root      5 :     4.552407628875681   Change is   -0.000005617925599
 Root      6 :     4.706241795980278   Change is   -0.000004384939358
 Root      7 :     4.799821351781431   Change is   -0.000042219326081
 Root      8 :     5.103390042077048   Change is   -0.000109612349238
 Root      9 :     5.296921256498498   Change is   -0.000110240369932
 Root     10 :     5.371601471907767   Change is   -0.000004780700223
 Iteration     8 Dimension   180 NMult   160 NNew     20
 CISAX will form    20 AO SS matrices at one time.
 NMat=    20 NSing=    20 JSym2X= 0.
 Root      1 not converged, maximum delta is    0.000007987466357
 Root      2 not converged, maximum delta is    0.000022692876952
 Root      3 not converged, maximum delta is    0.000021934344078
 Root      4 not converged, maximum delta is    0.000025822038885
 Root      5 not converged, maximum delta is    0.000023897842229
 Root      6 not converged, maximum delta is    0.000023400636341
 Root      7 not converged, maximum delta is    0.000072461696761
 Root      8 not converged, maximum delta is    0.000188247011996
 Root      9 not converged, maximum delta is    0.000231947567438
 Root     10 not converged, maximum delta is    0.000287380994815
 Excitation Energies [eV] at current iteration:
 Root      1 :     2.713704044436460   Change is   -0.000000076430724
 Root      2 :     3.962448165241270   Change is   -0.000000177030979
 Root      3 :     3.985795963087191   Change is   -0.000000181860254
 Root      4 :     4.211540791060263   Change is   -0.000000174347072
 Root      5 :     4.552407269399650   Change is   -0.000000359476032
 Root      6 :     4.706241522646207   Change is   -0.000000273334071
 Root      7 :     4.799818473796061   Change is   -0.000002877985370
 Root      8 :     5.103381381389319   Change is   -0.000008660687729
 Root      9 :     5.296912312987149   Change is   -0.000008943511349
 Root     10 :     5.371600801380350   Change is   -0.000000670527418
 Iteration     9 Dimension   200 NMult   180 NNew     20
 CISAX will form    20 AO SS matrices at one time.
 NMat=    20 NSing=    20 JSym2X= 0.
 Root      1 not converged, maximum delta is    0.000001192614297
 Root      2 not converged, maximum delta is    0.000005661395724
 Root      3 not converged, maximum delta is    0.000004950300120
 Root      4 not converged, maximum delta is    0.000007014980318
 Root      5 not converged, maximum delta is    0.000006175072730
 Root      6 not converged, maximum delta is    0.000005869244069
 Root      7 not converged, maximum delta is    0.000017393872841
 Root      8 not converged, maximum delta is    0.000045293023474
 Root      9 not converged, maximum delta is    0.000049468288757
 Root     10 not converged, maximum delta is    0.000052106178930
 Excitation Energies [eV] at current iteration:
 Root      1 :     2.713704041526288   Change is   -0.000000002910172
 Root      2 :     3.962448155121076   Change is   -0.000000010120193
 Root      3 :     3.985795953230427   Change is   -0.000000009856764
 Root      4 :     4.211540778103439   Change is   -0.000000012956825
 Root      5 :     4.552407247488921   Change is   -0.000000021910729
 Root      6 :     4.706241505311217   Change is   -0.000000017334990
 Root      7 :     4.799818318552440   Change is   -0.000000155243622
 Root      8 :     5.103380673593166   Change is   -0.000000707796154
 Root      9 :     5.296911595000379   Change is   -0.000000717986770
 Root     10 :     5.371600733100854   Change is   -0.000000068279497
 Davidson failed to converge within maximum sub-space dimensions.
  Restart with updated initial guess:
 Iteration     1 Dimension    40 NMult   200 NNew     40
 CISAX will form    40 AO SS matrices at one time.
 NMat=    40 NSing=    40 JSym2X= 0.
 Excitation Energies [eV] at current iteration:
 Root      1 :     2.713704041603081
 Root      2 :     3.962448154350899
 Root      3 :     3.985795952851049
 Root      4 :     4.211540777111747
 Root      5 :     4.552407245964750
 Root      6 :     4.706241504298751
 Root      7 :     4.799818310164627
 Root      8 :     5.103380626955571
 Root      9 :     5.296911542522137
 Root     10 :     5.371600731704324
 Iteration     2 Dimension    60 NMult   240 NNew     20
 CISAX will form    20 AO SS matrices at one time.
 NMat=    20 NSing=    20 JSym2X= 0.
 Root      1 has converged.
 Root      2 has converged.
 Root      3 has converged.
 Root      4 has converged.
 Root      5 not converged, maximum delta is    0.000001258610015
 Root      6 has converged.
 Root      7 not converged, maximum delta is    0.000001784362878
 Root      8 not converged, maximum delta is    0.000007418079739
 Root      9 not converged, maximum delta is    0.000005337858007
 Root     10 not converged, maximum delta is    0.000002384606950
 Excitation Energies [eV] at current iteration:
 Root      1 :     2.713704041612139   Change is    0.000000000009058
 Root      2 :     3.962448154283742   Change is   -0.000000000067157
 Root      3 :     3.985795952794969   Change is   -0.000000000056079
 Root      4 :     4.211540777019790   Change is   -0.000000000091957
 Root      5 :     4.552407245834209   Change is   -0.000000000130542
 Root      6 :     4.706241504196582   Change is   -0.000000000102169
 Root      7 :     4.799818309229618   Change is   -0.000000000935009
 Root      8 :     5.103380619586475   Change is   -0.000000007369096
 Root      9 :     5.296911534073200   Change is   -0.000000008448938
 Root     10 :     5.371600730873678   Change is   -0.000000000830646
 Iteration     3 Dimension    70 NMult   260 NNew     10
 CISAX will form    10 AO SS matrices at one time.
 NMat=    10 NSing=    10 JSym2X= 0.
 Root      1 has converged.
 Root      2 has converged.
 Root      3 has converged.
 Root      4 has converged.
 Root      5 has converged.
 Root      6 has converged.
 Root      7 has converged.
 Root      8 not converged, maximum delta is    0.000003198269311
 Root      9 not converged, maximum delta is    0.000002789366988
 Root     10 not converged, maximum delta is    0.000001626648158
 Excitation Energies [eV] at current iteration:
 Root      1 :     2.713704041609383   Change is   -0.000000000002757
 Root      2 :     3.962448154284115   Change is    0.000000000000373
 Root      3 :     3.985795952780614   Change is   -0.000000000014355
 Root      4 :     4.211540777018365   Change is   -0.000000000001424
 Root      5 :     4.552407245808096   Change is   -0.000000000026112
 Root      6 :     4.706241504189699   Change is   -0.000000000006883
 Root      7 :     4.799818309106234   Change is   -0.000000000123384
 Root      8 :     5.103380618333366   Change is   -0.000000001253108
 Root      9 :     5.296911532776838   Change is   -0.000000001296361
 Root     10 :     5.371600730703420   Change is   -0.000000000170258
 Iteration     4 Dimension    76 NMult   270 NNew      6
 CISAX will form     6 AO SS matrices at one time.
 NMat=     6 NSing=     6 JSym2X= 0.
 Root      1 has converged.
 Root      2 has converged.
 Root      3 has converged.
 Root      4 has converged.
 Root      5 has converged.
 Root      6 has converged.
 Root      7 has converged.
 Root      8 not converged, maximum delta is    0.000002238294532
 Root      9 not converged, maximum delta is    0.000002056428830
 Root     10 not converged, maximum delta is    0.000001039944364
 Excitation Energies [eV] at current iteration:
 Root      1 :     2.713704041581906   Change is   -0.000000000027476
 Root      2 :     3.962448154284987   Change is    0.000000000000872
 Root      3 :     3.985795952766465   Change is   -0.000000000014148
 Root      4 :     4.211540777018287   Change is   -0.000000000000079
 Root      5 :     4.552407245795420   Change is   -0.000000000012676
 Root      6 :     4.706241504187953   Change is   -0.000000000001746
 Root      7 :     4.799818309103391   Change is   -0.000000000002843
 Root      8 :     5.103380618025035   Change is   -0.000000000308331
 Root      9 :     5.296911532517330   Change is   -0.000000000259508
 Root     10 :     5.371600730654998   Change is   -0.000000000048422
 Iteration     5 Dimension    82 NMult   276 NNew      6
 CISAX will form     6 AO SS matrices at one time.
 NMat=     6 NSing=     6 JSym2X= 0.
 Root      1 has converged.
 Root      2 has converged.
 Root      3 has converged.
 Root      4 has converged.
 Root      5 has converged.
 Root      6 has converged.
 Root      7 has converged.
 Root      8 not converged, maximum delta is    0.000001046748190
 Root      9 not converged, maximum delta is    0.000001178666221
 Root     10 has converged.
 Excitation Energies [eV] at current iteration:
 Root      1 :     2.713704041579998   Change is   -0.000000000001909
 Root      2 :     3.962448154286273   Change is    0.000000000001286
 Root      3 :     3.985795952775499   Change is    0.000000000009034
 Root      4 :     4.211540777018620   Change is    0.000000000000332
 Root      5 :     4.552407245786608   Change is   -0.000000000008812
 Root      6 :     4.706241504178677   Change is   -0.000000000009275
 Root      7 :     4.799818309111492   Change is    0.000000000008101
 Root      8 :     5.103380617939434   Change is   -0.000000000085601
 Root      9 :     5.296911532443906   Change is   -0.000000000073424
 Root     10 :     5.371600730633787   Change is   -0.000000000021211
 Iteration     6 Dimension    86 NMult   282 NNew      4
 CISAX will form     4 AO SS matrices at one time.
 NMat=     4 NSing=     4 JSym2X= 0.
 Root      1 has converged.
 Root      2 has converged.
 Root      3 has converged.
 Root      4 has converged.
 Root      5 has converged.
 Root      6 has converged.
 Root      7 has converged.
 Root      8 has converged.
 Root      9 has converged.
 Root     10 has converged.
 Excitation Energies [eV] at current iteration:
 Root      1 :     2.713704041530892   Change is   -0.000000000049106
 Root      2 :     3.962448154272953   Change is   -0.000000000013320
 Root      3 :     3.985795952768713   Change is   -0.000000000006786
 Root      4 :     4.211540777019009   Change is    0.000000000000390
 Root      5 :     4.552407245782834   Change is   -0.000000000003774
 Root      6 :     4.706241504171341   Change is   -0.000000000007337
 Root      7 :     4.799818309111389   Change is   -0.000000000000103
 Root      8 :     5.103380617904946   Change is   -0.000000000034489
 Root      9 :     5.296911532398308   Change is   -0.000000000045598
 Root     10 :     5.371600730631904   Change is   -0.000000000001883
 Convergence achieved on expansion vectors.
 ***********************************************************************
 Excited states from <AA,BB:AA,BB> singles matrix:
 ***********************************************************************
 
 1PDM for each excited state written to RWF  633
 Ground to excited state transition densities written to RWF  633
 Ground to excited state transition electric dipole moments (Au):
       state          X           Y           Z        Dip. S.      Osc.
         1        -3.7432     -1.8797     -0.3633     17.6771      1.1753
         2         0.2184     -0.1113     -0.0486      0.0624      0.0061
         3         0.3040     -0.1939     -0.0375      0.1315      0.0128
         4        -0.0316      0.0159     -0.1389      0.0205      0.0021
         5        -0.1878      0.8097      0.2353      0.7462      0.0832
         6        -0.0182     -0.0795     -0.0541      0.0096      0.0011
         7        -0.2082     -0.4118     -0.0936      0.2217      0.0261
         8        -0.5548      0.8968      0.2006      1.1524      0.1441
         9        -0.3505      0.2094      0.1015      0.1771      0.0230
        10        -0.0028     -0.1095     -0.0914      0.0204      0.0027
 Ground to excited state transition velocity dipole moments (Au):
       state          X           Y           Z        Dip. S.      Osc.
         1         0.3650      0.1802      0.0347      0.1669      1.1159
         2        -0.0313      0.0131      0.0063      0.0012      0.0055
         3        -0.0443      0.0238      0.0042      0.0025      0.0116
         4         0.0049     -0.0043      0.0272      0.0008      0.0034
         5         0.0382     -0.1441     -0.0419      0.0240      0.0956
         6         0.0052      0.0138      0.0094      0.0003      0.0012
         7         0.0294      0.0786      0.0185      0.0074      0.0279
         8         0.1080     -0.1638     -0.0366      0.0398      0.1416
         9         0.0619     -0.0404     -0.0198      0.0059      0.0200
        10         0.0003      0.0206      0.0187      0.0008      0.0026
 Ground to excited state transition magnetic dipole moments (Au):
       state          X           Y           Z
         1        -0.0916      0.3770     -1.1633
         2         0.2938      0.5928      0.1976
[...]
    35  H    0.000058  -0.000001   0.000000   0.000000   0.000000   0.000000
    36  H   -0.000018  -0.000019  -0.000002   0.000000   0.000000   0.000000
    37  H    0.000213   0.000015   0.000013   0.000000   0.000000   0.000000
    38  H   -0.002749  -0.000276  -0.000041   0.000000   0.000000   0.000000
    39  H    0.003608   0.000592   0.000243   0.000000  -0.000001   0.000000
    40  H    0.027067  -0.015789  -0.058685  -0.001994  -0.001707  -0.000660
    41  H   -0.005673  -0.004835   0.000127   0.000423   0.000323   0.000510
    42  H    0.016225   0.026593  -0.010506  -0.000009   0.000067   0.000188
    43  H    0.000017   0.000001   0.000000   0.000000   0.000000   0.000000
    44  H    0.000004  -0.000002   0.000000   0.000000   0.000000   0.000000
    45  H    0.000486   0.000018   0.000010   0.000000   0.000000   0.000000
              25         26         27         28         29         30
     1  O    0.010443  -0.002220  -0.028693   0.000000  -0.019971   0.000157
     2  C   -1.955665   0.881357   0.362623   0.000301   0.032312  -0.038726
     3  C   -0.656645   0.303234  -0.530331   0.001188   0.546755   0.023204
     4  C   -0.128398  -0.655738  -2.436640  -0.003894  -0.056550   0.020707
     5  O    0.005583   0.013702   0.088708  -0.000711  -0.011407  -0.051784
     6  C   -0.089878  -0.080972  -0.778627  -0.022550  -0.001519   0.270997
     7  C    0.010823   0.013067   0.016959   0.100544   0.002345   0.633947
     8  C    0.002081   0.005121   0.008385  -0.050766  -0.005690  -0.395273
     9  N   -0.000008  -0.000034  -0.000388   0.020939  -0.000101  -0.012404
    10  C   -0.000017   0.000145   0.001009   0.170309  -0.000114  -0.000202
    11  C    0.000004   0.000011   0.000140  -0.036246  -0.000028   0.003966
    12  C    0.000061   0.000200   0.002090  -0.233737   0.000163  -0.007063
    13  C   -0.000858   0.041001   0.229917  -0.061752   0.001608   0.014058
    14  C    0.035403   0.004080   0.165436  -0.020953   0.000841   0.075503
    15  C    0.106518   0.110947   1.304222  -0.002810  -0.033660  -0.157723
    16  N    0.005105   0.091302   0.213668   0.000129  -0.000885   0.001062
    17  C   -0.156032  -0.994146  -0.450620  -0.009403  -0.015480  -0.122185
    18  C    2.362682  -2.401870  -1.679872  -0.000113  -0.000018  -0.006444
    19  C   -0.435228  -0.170593  -1.538771   0.000140  -0.056279  -0.007133
    20  C   -3.489947  -1.778361   1.819104   0.000040  -0.029173  -0.001746
    21  C    0.273324  -0.428927   0.284927   0.000002  -0.006283  -0.000750
    22  F    0.065002   0.024339  -0.005982   0.000000  -0.000121   0.000000
    23  F    0.002211   0.012069   0.002655   0.000000  -0.000086   0.000001
    24  F   -0.179661   0.109543   0.024844   0.000000   0.000015   0.000000
    25  C   13.438687   0.622623  -3.597649  -0.000005  -0.005830  -0.000028
    26  C    0.622623  10.400427   0.186037  -0.000022   0.003503  -0.000487
    27  C   -3.597649   0.186037  12.009613  -0.000301  -0.019176  -0.005703
    28  C   -0.000005  -0.000022  -0.000301   5.556236  -0.000045  -0.021696
    29  H   -0.005830   0.003503  -0.019176  -0.000045   0.447287  -0.003658
    30  H   -0.000028  -0.000487  -0.005703  -0.021696  -0.003658   0.578343
    31  H   -0.000001   0.000004   0.000034   0.007407   0.000002  -0.002601
    32  H   -0.000014  -0.000065  -0.000491   0.008845   0.000008   0.000478
    33  H    0.000000   0.000001   0.000008  -0.000790  -0.000001   0.000260
    34  H   -0.000001  -0.000007  -0.000063   0.005916   0.000000   0.001658
    35  H   -0.000002  -0.000007  -0.000035   0.002134   0.000007  -0.002354
    36  H    0.000003   0.000011   0.000106  -0.080581  -0.000005   0.006752
    37  H    0.000006   0.000003   0.000382  -0.063273   0.000322  -0.057992
    38  H    0.000467   0.002172   0.010680  -0.003088  -0.000014   0.003505
    39  H   -0.002085  -0.007456  -0.020528  -0.000102  -0.000094   0.002793
    40  H    0.486669  -0.059663  -0.030189   0.000000  -0.000079  -0.000003
    41  H   -0.059970   0.429238  -0.046299   0.000000   0.000015   0.000034
    42  H   -0.036237  -0.154600   0.475833   0.000006  -0.000204  -0.000219
    43  H   -0.000001  -0.000001  -0.000028   0.445086   0.000014   0.000416
    44  H    0.000002  -0.000001   0.000008   0.372565   0.000011  -0.001282
    45  H    0.000003   0.000010   0.000074   0.349095   0.000043  -0.014470
              31         32         33         34         35         36
     1  O    0.000000   0.000000   0.000000   0.000000   0.000000   0.000000
     2  C   -0.000040   0.000095  -0.000003   0.000015   0.000033  -0.000130
     3  C   -0.000263   0.000688  -0.000001   0.000101   0.000072  -0.000355
     4  C    0.000142   0.004088  -0.000431   0.000558   0.001145  -0.000287
     5  O    0.000059   0.000103  -0.000027  -0.000011   0.000038   0.000240
     6  C    0.008147  -0.015733  -0.003505   0.001006  -0.005017  -0.008274
     7  C   -0.016426   0.022256   0.000913   0.030201  -0.029566  -0.033785
     8  C    0.027425   0.058366  -0.006398  -0.027635   0.002427   0.014879
     9  N   -0.080011  -0.042782   0.023693  -0.001628  -0.011094  -0.072866
    10  C    0.507020   0.500106  -0.090473   0.041648   0.055231   0.013564
    11  C   -0.088956  -0.055004   0.435810   0.387258   0.347114   0.008851
    12  C    0.013162  -0.058763   0.005383  -0.045467   0.010976   0.504783
    13  C    0.006263  -0.044340   0.014253  -0.017641   0.010411  -0.015742
    14  C   -0.025084  -0.046485   0.011719  -0.000329  -0.027033  -0.002712
    15  C   -0.015541   0.018045   0.003363  -0.004923   0.001292   0.008739
    16  N   -0.000004   0.000179   0.000000  -0.000010   0.000186  -0.000024
    17  C   -0.001265   0.000243  -0.000251  -0.001194   0.002880   0.003780
    18  C    0.000063  -0.000258   0.000016  -0.000005  -0.000095  -0.000024
    19  C   -0.000029   0.000124  -0.000003   0.000001   0.000058  -0.000018
    20  C    0.000003   0.000018   0.000000   0.000004  -0.000001  -0.000019
    21  C    0.000000   0.000002   0.000000   0.000000   0.000000  -0.000002
    22  F    0.000000   0.000000   0.000000   0.000000   0.000000   0.000000
    23  F    0.000000   0.000000   0.000000   0.000000   0.000000   0.000000
    24  F    0.000000   0.000000   0.000000   0.000000   0.000000   0.000000
    25  C   -0.000001  -0.000014   0.000000  -0.000001  -0.000002   0.000003
    26  C    0.000004  -0.000065   0.000001  -0.000007  -0.000007   0.000011
    27  C    0.000034  -0.000491   0.000008  -0.000063  -0.000035   0.000106
    28  C    0.007407   0.008845  -0.000790   0.005916   0.002134  -0.080581
    29  H    0.000002   0.000008  -0.000001   0.000000   0.000007  -0.000005
    30  H   -0.002601   0.000478   0.000260   0.001658  -0.002354   0.006752
    31  H    0.498191  -0.043114  -0.007965  -0.000316   0.008872  -0.014535
    32  H   -0.043114   0.563563  -0.001250   0.013099  -0.012593   0.004040
    33  H   -0.007965  -0.001250   0.503839  -0.021867  -0.028503  -0.000519
    34  H   -0.000316   0.013099  -0.021867   0.551091  -0.058731  -0.005222
    35  H    0.008872  -0.012593  -0.028503  -0.058731   0.583402   0.001871
    36  H   -0.014535   0.004040  -0.000519  -0.005222   0.001871   0.496542
    37  H    0.005034  -0.008101   0.000494  -0.010011   0.002561  -0.040287
    38  H    0.009637  -0.044711  -0.002514  -0.002742  -0.001614  -0.002452
    39  H   -0.000113   0.004333   0.000095   0.000440  -0.000060   0.000037
    40  H    0.000000   0.000000   0.000000   0.000000   0.000000   0.000000
    41  H    0.000000   0.000001   0.000000   0.000000   0.000000   0.000000
    42  H   -0.000005  -0.000068   0.000000  -0.000001  -0.000014  -0.000007
    43  H   -0.000557   0.000597  -0.000075   0.000594  -0.000195  -0.006793
    44  H   -0.004845  -0.009307   0.000687  -0.004554   0.000672  -0.000197
    45  H    0.001278   0.002424  -0.000223   0.000659   0.000704   0.009411
              37         38         39         40         41         42
     1  O   -0.000006  -0.000002   0.000010   0.000196   0.000092  -0.000268
     2  C    0.002075  -0.001708   0.001902   0.004085  -0.003767  -0.013048
     3  C   -0.002396  -0.009438   0.011442   0.006136   0.003906  -0.022886
     4  C    0.009195  -0.048440   0.057423  -0.002930   0.013736  -0.037286
     5  O    0.003589   0.002010  -0.001845   0.000054  -0.000092  -0.000837
     6  C   -0.024898  -0.029918   0.085968  -0.001774   0.005153  -0.002475
     7  C   -0.077831  -0.011183   0.008812   0.000148  -0.000038  -0.001203
     8  C    0.048770  -0.233378   0.073602  -0.000012   0.000240  -0.003667
     9  N   -0.057018  -0.013636  -0.005311   0.000000  -0.000001   0.000045
    10  C   -0.063099   0.000527   0.007237   0.000000   0.000004  -0.000158
    11  C    0.003112  -0.002313  -0.002420   0.000000   0.000000   0.000040
    12  C    0.517292   0.002999  -0.003869   0.000000  -0.000001  -0.000052
    13  C    0.014568   0.696432  -0.062507   0.000006   0.000256  -0.005744
    14  C   -0.002388   0.090904   0.224116   0.000404  -0.002224   0.017613
    15  C    0.030921  -0.107088  -0.058703   0.001205  -0.004097   0.055023
    16  N   -0.000312   0.001814  -0.001398   0.000143   0.000088  -0.003182
    17  C    0.016362  -0.014657   0.026111  -0.009655   0.005682  -0.007305
    18  C    0.000660   0.004499  -0.007036   0.023347   0.007378   0.059236
    19  C    0.000213  -0.002749   0.003608   0.027067  -0.005673   0.016225
    20  C    0.000015  -0.000276   0.000592  -0.015789  -0.004835   0.026593
    21  C    0.000013  -0.000041   0.000243  -0.058685   0.000127  -0.010506
    22  F    0.000000   0.000000   0.000000  -0.001994   0.000423  -0.000009
    23  F    0.000000   0.000000  -0.000001  -0.001707   0.000323   0.000067
    24  F    0.000000   0.000000   0.000000  -0.000660   0.000510   0.000188
    25  C    0.000006   0.000467  -0.002085   0.486669  -0.059970  -0.036237
    26  C    0.000003   0.002172  -0.007456  -0.059663   0.429238  -0.154600
    27  C    0.000382   0.010680  -0.020528  -0.030189  -0.046299   0.475833
    28  C   -0.063273  -0.003088  -0.000102   0.000000   0.000000   0.000006
    29  H    0.000322  -0.000014  -0.000094  -0.000079   0.000015  -0.000204
    30  H   -0.057992   0.003505   0.002793  -0.000003   0.000034  -0.000219
    31  H    0.005034   0.009637  -0.000113   0.000000   0.000000  -0.000005
    32  H   -0.008101  -0.044711   0.004333   0.000000   0.000001  -0.000068
    33  H    0.000494  -0.002514   0.000095   0.000000   0.000000   0.000000
    34  H   -0.010011  -0.002742   0.000440   0.000000   0.000000  -0.000001
    35  H    0.002561  -0.001614  -0.000060   0.000000   0.000000  -0.000014
    36  H   -0.040287  -0.002452   0.000037   0.000000   0.000000  -0.000007
    37  H    0.565638   0.002232  -0.000990   0.000000  -0.000002   0.000038
    38  H    0.002232   0.486443  -0.020791   0.000006  -0.000038   0.000848
    39  H   -0.000990  -0.020791   0.439467  -0.000070   0.000403  -0.003467
    40  H    0.000000   0.000006  -0.000070   0.447864  -0.010425   0.002762
    41  H   -0.000002  -0.000038   0.000403  -0.010425   0.441223  -0.009763
    42  H    0.000038   0.000848  -0.003467   0.002762  -0.009763   0.437997
    43  H   -0.005677  -0.000217  -0.000005   0.000000   0.000000   0.000000
    44  H    0.013440   0.001739  -0.000237   0.000000   0.000000   0.000005
    45  H   -0.008421  -0.001747   0.000147   0.000000   0.000000  -0.000014
              43         44         45
     1  O    0.000000   0.000000   0.000000
     2  C    0.000015   0.000034   0.001038
     3  C    0.000465  -0.000089   0.000811
     4  C    0.000866  -0.001470   0.005446
     5  O   -0.000175   0.000053   0.000636
     6  C    0.002290  -0.008264  -0.000412
     7  C    0.032188  -0.023734  -0.026298
     8  C   -0.013217  -0.034152   0.023154
     9  N    0.028205  -0.007043  -0.013590
    10  C    0.007581  -0.048932   0.006526
    11  C   -0.001122   0.008739   0.000666
    12  C   -0.097065   0.056507   0.051799
    13  C   -0.007084   0.032800  -0.025945
    14  C   -0.001133   0.012761  -0.016567
    15  C   -0.001351   0.007105   0.000269
    16  N    0.000017  -0.000061   0.000185
    17  C   -0.001190   0.001290   0.004109
    18  C   -0.000044   0.000017  -0.000414
    19  C    0.000017   0.000004   0.000486
    20  C    0.000001  -0.000002   0.000018
    21  C    0.000000   0.000000   0.000010
    22  F    0.000000   0.000000   0.000000
    23  F    0.000000   0.000000   0.000000
    24  F    0.000000   0.000000   0.000000
    25  C   -0.000001   0.000002   0.000003
    26  C   -0.000001  -0.000001   0.000010
    27  C   -0.000028   0.000008   0.000074
    28  C    0.445086   0.372565   0.349095
    29  H    0.000014   0.000011   0.000043
    30  H    0.000416  -0.001282  -0.014470
    31  H   -0.000557  -0.004845   0.001278
    32  H    0.000597  -0.009307   0.002424
    33  H   -0.000075   0.000687  -0.000223
    34  H    0.000594  -0.004554   0.000659
    35  H   -0.000195   0.000672   0.000704
    36  H   -0.006793  -0.000197   0.009411
    37  H   -0.005677   0.013440  -0.008421
    38  H   -0.000217   0.001739  -0.001747
    39  H   -0.000005  -0.000237   0.000147
    40  H    0.000000   0.000000   0.000000
    41  H    0.000000   0.000000   0.000000
    42  H    0.000000   0.000005  -0.000014
    43  H    0.512193  -0.026365  -0.029481
    44  H   -0.026365   0.555479  -0.058558
    45  H   -0.029481  -0.058558   0.589210
 Mulliken charges:
               1
     1  O   -0.391594
     2  C   -0.651450
     3  C   -0.643661
     4  C    0.269025
     5  O   -0.089835
     6  C    0.240477
     7  C   -0.262228
     8  C   -0.249319
     9  N    0.236462
    10  C   -0.320954
    11  C   -0.443357
    12  C   -0.335402
    13  C   -0.186819
    14  C   -0.395841
    15  C    0.171948
    16  N    0.124352
    17  C    0.071020
    18  C    0.056476
    19  C    0.224132
    20  C    0.254059
    21  C    0.865683
    22  F   -0.080621
    23  F   -0.066093
    24  F   -0.163759
    25  C   -0.633536
    26  C   -0.518979
    27  C   -0.037076
    28  C   -0.428044
    29  H    0.231223
    30  H    0.274087
    31  H    0.208928
    32  H    0.181377
    33  H    0.164266
    34  H    0.168110
    35  H    0.144828
    36  H    0.211227
    37  H    0.185766
    38  H    0.237841
    39  H    0.250305
    40  H    0.193542
    41  H    0.238393
    42  H    0.220704
    43  H    0.161232
    44  H    0.165176
    45  H    0.147929
 Sum of Mulliken charges =   0.00000
 Mulliken charges with hydrogens summed into heavy atoms:
               1
     1  O   -0.391594
     2  C   -0.651450
     3  C   -0.412438
     4  C    0.269025
     5  O   -0.089835
     6  C    0.240477
     7  C    0.011859
     8  C   -0.249319
     9  N    0.236462
    10  C    0.069352
    11  C    0.033847
    12  C    0.061591
    13  C    0.051022
    14  C   -0.145536
    15  C    0.171948
    16  N    0.124352
    17  C    0.071020
    18  C    0.056476
    19  C    0.224132
    20  C    0.254059
    21  C    0.865683
    22  F   -0.080621
    23  F   -0.066093
    24  F   -0.163759
    25  C   -0.439995
    26  C   -0.280586
    27  C    0.183627
    28  C    0.046294
 Electronic spatial extent (au):  <R**2>=          32339.5796
 Charge=              0.0000 electrons
 Dipole moment (field-independent basis, Debye):
    X=             20.0324    Y=             13.9269    Z=              2.7202  Tot=             24.5491
 Quadrupole moment (field-independent basis, Debye-Ang):
   XX=           -280.2246   YY=           -223.6878   ZZ=           -168.4654
   XY=           -105.6312   XZ=            -21.1485   YZ=             -8.9763
 Traceless Quadrupole moment (field-independent basis, Debye-Ang):
   XX=            -56.0987   YY=              0.4381   ZZ=             55.6606
   XY=           -105.6312   XZ=            -21.1485   YZ=             -8.9763
 Octapole moment (field-independent basis, Debye-Ang**2):
  XXX=           3069.1575  YYY=           1190.8876  ZZZ=            122.0584  XYY=           1251.0173
  XXY=           1122.1609  XXZ=            215.6817  XZZ=            742.1190  YZZ=            287.8989
  YYZ=            106.2423  XYZ=             95.3105
 Hexadecapole moment (field-independent basis, Debye-Ang**3):
 XXXX=         -41794.0838 YYYY=          -8890.5281 ZZZZ=           -593.7211 XXXY=         -13173.7332
 XXXZ=          -2543.0412 YYYX=          -9004.6660 YYYZ=           -849.2388 ZZZX=          -1039.9970
 ZZZY=           -561.5716 XXYY=         -11254.1928 XXZZ=          -6160.6288 YYZZ=          -1335.6704
 XXYZ=           -950.9120 YYXZ=           -847.8784 ZZXY=          -2167.1070
 N-N= 2.505326139865D+03 E-N=-8.215535101563D+03  KE= 1.363966437368D+03
 No NMR shielding tensors so no spin-rotation constants.
 Leave Link  601 at Mon Feb 17 13:51:12 2020, MaxMem=  6710886400 cpu:         7.9
 (Enter /opt/sys/apps/gaussian09/D.01/g09/l9999.exe)

 Test job not archived.
 1\1\GINC-S83P33\SP\RCAM-B3LYP TD-FC\6-311++G(d,p)\C21H17F3N2O2\SALVATO
 RE\17-Feb-2020\0\\#p CAM-B3LYP/6-311++G** nosym density=current geom=a
 llcheck EmpiricalDispersion=GD3 SCRF=(CPCM, solvent=acetonitrile) IOP(
 10/74=10) TD=(NSTATES=10,ROOT=1,NONEQ) iop(3/119=0810000000) iop(3/120
 =0810000000)\\NRA_NRA1\\0,1\O,0,-6.8561873527,-5.1760756702,-0.8774739
 998\C,0,-6.3810585955,-4.0469798901,-0.7041850319\C,0,-4.9518060289,-3
 .8483672306,-0.7283600413\C,0,-4.3877998928,-2.6449889098,-0.455405431
 9\O,0,-3.0292067167,-2.5394924159,-0.4840890985\C,0,-2.4360254205,-1.3
 42536562,-0.1871085184\C,0,-1.0628295222,-1.2779732005,-0.2245128012\C
 ,0,-0.4054288881,-0.058279834,0.0860644451\N,0,0.9495360746,0.04188131
 47,0.0449316074\C,0,1.6615928842,1.2518674424,0.477386028\C,0,1.832921
 761,2.2778297916,-0.6452859018\C,0,1.7960300839,-1.0541980297,-0.44335
 65684\C,0,-1.2236252722,1.0646780297,0.439870063\C,0,-2.5921998261,0.9
 695632321,0.467288854\C,0,-3.2533816186,-0.2380252116,0.1518597787\N,0
 ,-4.6085817629,-0.3291365604,0.1692174121\C,0,-5.169803904,-1.47770772
 44,-0.1266660991\C,0,-6.6292122673,-1.6106361313,-0.1360732835\C,0,-7.
 2477551893,-2.8475526015,-0.4513007406\C,0,-8.6696966569,-2.8898604113
 ,-0.4870421036\C,0,-9.4757031873,-4.124322199,-0.860474105\F,0,-9.1617
 956347,-4.6211841691,-2.0779667378\F,0,-9.3833032252,-5.1242925959,0.0
 45455528\F,0,-10.808952281,-3.8405296576,-0.9327060733\C,0,-9.41091227
 6,-1.751835117,-0.1878705963\C,0,-8.7822216561,-0.5498675798,0.1460302
 457\C,0,-7.4064245453,-0.4779427956,0.1638841024\C,0,2.1867443472,-2.0
 446604286,0.6564782337\H,0,-4.3325248922,-4.7090942638,-0.9462544952\H
 ,0,-0.5194252265,-2.1769154412,-0.4731222025\H,0,2.6390523113,0.931920
 1441,0.8438924501\H,0,1.1488096481,1.6901514818,1.3346985798\H,0,2.390
 7975436,3.1436980461,-0.2796470635\H,0,2.3839981196,1.8448851707,-1.48
 38440037\H,0,0.8647856503,2.6223351248,-1.0152905052\H,0,2.6911777156,
 -0.6000470733,-0.8731425108\H,0,1.2915470806,-1.5621770984,-1.26713911
 54\H,0,-0.767994939,2.0156928659,0.6704113171\H,0,-3.1979281163,1.8304
 214705,0.7250136205\H,0,-10.4899142741,-1.78823996,-0.2168287462\H,0,-
 9.3810056751,0.3220672336,0.3792118947\H,0,-6.9020970859,0.447758202,0
 .4056397052\H,0,2.8287592338,-2.8274550568,0.2444853447\H,0,2.73427030
 18,-1.5387104332,1.4556002071\H,0,1.3048791737,-2.5176652974,1.0941263
 577\\Version=ES64L-G09RevD.01\HF=-1368.8130175\RMSD=4.567e-09\Dipole=7
 .881366,5.4792777,1.0702125\Quadrupole=-41.7079988,0.3257118,41.382287
 ,-78.5342146,-15.723423,-6.6736433\PG=C01 [X(C21H17F3N2O2)]\\@


0EVERYBODY IS IGNORANT, ONLY ON DIFFERENT SUBJECTS.
0          WILL ROGERS
 Job cpu time:       0 days 19 hours  8 minutes 38.0 seconds.
 File lengths (MBytes):  RWF=   1561 Int=      0 D2E=      0 Chk=    268 Scr=      1
 Normal termination of Gaussian 09 at Mon Feb 17 13:51:13 2020.
 0 D2E=      0 Chk=    268 Scr=      1
 Normal termination of Gaussian 09 at Mon Feb 17 13:49:15 2020.
