 Entering Gaussian System, Link 0=g09
 Initial command:
 /opt/sys/apps/gaussian09/D.01/g09/l1.exe "/tmp/Gau-3825.inp" -scrdir="/tmp/"
 Entering Link 1 = /opt/sys/apps/gaussian09/D.01/g09/l1.exe PID=      3826.
  
 Copyright (c) 1988,1990,1992,1993,1995,1998,2003,2009,2013,
            Gaussian, Inc.  All Rights Reserved.
  
 This is part of the Gaussian(R) 09 program.  It is based on
 the Gaussian(R) 03 system (copyright 2003, Gaussian, Inc.),
 the Gaussian(R) 98 system (copyright 1998, Gaussian, Inc.),
 the Gaussian(R) 94 system (copyright 1995, Gaussian, Inc.),
 the Gaussian 92(TM) system (copyright 1992, Gaussian, Inc.),
 the Gaussian 90(TM) system (copyright 1990, Gaussian, Inc.),
 the Gaussian 88(TM) system (copyright 1988, Gaussian, Inc.),
 the Gaussian 86(TM) system (copyright 1986, Carnegie Mellon
 University), and the Gaussian 82(TM) system (copyright 1983,
 Carnegie Mellon University). Gaussian is a federally registered
 trademark of Gaussian, Inc.
  
 This software contains proprietary and confidential information,
 including trade secrets, belonging to Gaussian, Inc.
  
 This software is provided under written license and may be
 used, copied, transmitted, or stored only in accord with that
 written license.
  
 The following legend is applicable only to US Government
 contracts under FAR:
  
                    RESTRICTED RIGHTS LEGEND
  
 Use, reproduction and disclosure by the US Government is
 subject to restrictions as set forth in subparagraphs (a)
 and (c) of the Commercial Computer Software - Restricted
 Rights clause in FAR 52.227-19.
  
 Gaussian, Inc.
 340 Quinnipiac St., Bldg. 40, Wallingford CT 06492
  
  
 ---------------------------------------------------------------
 Warning -- This program may not be used in any manner that
 competes with the business of Gaussian, Inc. or will provide
 assistance to any competitor of Gaussian, Inc.  The licensee
 of this program is prohibited from giving any competitor of
 Gaussian, Inc. access to this program.  By using this program,
 the user acknowledges that Gaussian, Inc. is engaged in the
 business of creating and licensing software in the field of
 computational chemistry and represents and warrants to the
 licensee that it is not a competitor of Gaussian, Inc. and that
 it will not use this program in any manner prohibited above.
 ---------------------------------------------------------------
  

 Cite this work as:
 Gaussian 09, Revision D.01,
 M. J. Frisch, G. W. Trucks, H. B. Schlegel, G. E. Scuseria, 
 M. A. Robb, J. R. Cheeseman, G. Scalmani, V. Barone, B. Mennucci, 
 G. A. Petersson, H. Nakatsuji, M. Caricato, X. Li, H. P. Hratchian, 
 A. F. Izmaylov, J. Bloino, G. Zheng, J. L. Sonnenberg, M. Hada, 
 M. Ehara, K. Toyota, R. Fukuda, J. Hasegawa, M. Ishida, T. Nakajima, 
 Y. Honda, O. Kitao, H. Nakai, T. Vreven, J. A. Montgomery, Jr., 
 J. E. Peralta, F. Ogliaro, M. Bearpark, J. J. Heyd, E. Brothers, 
 K. N. Kudin, V. N. Staroverov, T. Keith, R. Kobayashi, J. Normand, 
 K. Raghavachari, A. Rendell, J. C. Burant, S. S. Iyengar, J. Tomasi, 
 M. Cossi, N. Rega, J. M. Millam, M. Klene, J. E. Knox, J. B. Cross, 
 V. Bakken, C. Adamo, J. Jaramillo, R. Gomperts, R. E. Stratmann, 
 O. Yazyev, A. J. Austin, R. Cammi, C. Pomelli, J. W. Ochterski, 
 R. L. Martin, K. Morokuma, V. G. Zakrzewski, G. A. Voth, 
 P. Salvador, J. J. Dannenberg, S. Dapprich, A. D. Daniels, 
 O. Farkas, J. B. Foresman, J. V. Ortiz, J. Cioslowski, 
 and D. J. Fox, Gaussian, Inc., Wallingford CT, 2013.
 
 ******************************************
 Gaussian 09:  ES64L-G09RevD.01 24-Apr-2013
                17-Feb-2020 
 ******************************************
 %NProcShared=24
 Will use up to   24 processors via shared memory.
 %Chk=checkpointES.chk
 ----------------------------------------------------------------------
 #p CAM-B3LYP/6-311++G** geom=allcheck nosym TD=(NSTATES=10,ROOT=1) den
 sity=current iop(3/119=0810000000) iop(3/120=0810000000)
 ----------------------------------------------------------------------
 1/29=7,30=1,38=1/1;
 2/12=2,15=1,40=1/2;
 3/5=4,6=6,7=1111,11=9,14=-4,16=1,25=1,30=1,71=1,74=-40,119=810000000,120=810000000/1,2,8,3;
 4//1;
 5/5=2,38=5/2;
 8/6=1,10=2,107=1,108=10/1;
 9/8=1,15=1,41=10,42=1,70=2/14;
 10/5=4,13=10,31=1/2;
 6/7=2,8=2,9=2,10=2,22=-1/1;
 99/5=1,9=1/99;
 Leave Link    1 at Mon Feb 17 09:41:58 2020, MaxMem=           0 cpu:         3.1
 (Enter /opt/sys/apps/gaussian09/D.01/g09/l101.exe)
 Structure from the checkpoint file:  "checkpointES.chk"
 ---
 Nil
 ---
 Charge =  0 Multiplicity = 1
 Redundant internal coordinates found in file.
 C,0,2.7568490605,-1.6083007139,-0.1915643872
 C,0,1.4187272851,-1.9375589343,-0.2208419641
 C,0,0.4173440768,-0.9581686503,-0.1038093743
 C,0,0.8461820969,0.3739518594,0.0425890713
 C,0,2.1796195329,0.734301657,0.0722690932
 C,0,3.1823731119,-0.2561108427,-0.042532624
 C,0,-1.4175294068,1.0628871176,0.1182811181
 C,0,-1.7975966036,-0.339192,-0.0260030269
 C,0,-3.232348094,-0.6455879701,-0.0510241304
 C,0,-4.1764931173,0.3954609593,0.057511774
 C,0,-3.7455152119,1.8195237549,0.2004956419
 C,0,-2.3131536789,2.0728535965,0.2231608236
 H,0,3.4848821281,-2.4024557372,-0.2654973238
 H,0,1.1071164101,-2.9700047192,-0.327990074
 H,0,2.413704714,1.7844426995,0.1652092448
 H,0,-1.9822490884,3.0984358609,0.3283330714
 O,0,-0.0834945271,1.3706005359,0.1507058378
 N,0,-0.9133918968,-1.2910480272,-0.1315920716
 N,0,4.5166637979,0.0740982873,-0.0088763245
 C,0,4.9669039008,1.4387919363,0.2688230625
 H,0,4.3025900628,1.8931405916,1.0074011573
 H,0,5.9443034086,1.3657100444,0.7535347812
 C,0,5.567369613,-0.9158022778,-0.2520847542
 H,0,5.2321308671,-1.6182670571,-1.0181358466
 H,0,6.416894775,-0.3842566716,-0.6895381182
 C,0,6.023226163,-1.6654321305,1.0052003217
 H,0,5.2014918315,-2.2268500133,1.4548015135
 H,0,6.8232488142,-2.3687961284,0.756477173
 H,0,6.4067637788,-0.9717765959,1.7580386484
 C,0,5.0767723748,2.3260322516,-0.9765648886
 H,0,5.7799741753,1.9021838153,-1.6983910587
 H,0,4.1114468198,2.437509468,-1.4746971864
 H,0,5.4361647545,3.3215914803,-0.7006521072
 O,0,-4.5650176567,2.7310414784,0.2942271179
 C,0,-3.6806602995,-1.9698520915,-0.183225346
 C,0,-5.5439500056,0.0977782827,0.0321831746
 C,0,-5.9752821294,-1.2139913069,-0.0983884666
 H,0,-5.3743982263,-3.2752344078,-0.3083011311
 C,0,-5.0383595924,-2.249283143,-0.2061359857
 H,0,-7.035991665,-1.4379183914,-0.1171912681
 H,0,-2.9470814575,-2.7613600801,-0.2659454816
 H,0,-6.2445288959,0.9194802134,0.1172623138
 Recover connectivity data from disk.
 NAtoms=     42 NQM=       42 NQMF=       0 NMMI=      0 NMMIF=      0
                NMic=       0 NMicF=      0.
                    Isotopes and Nuclear Properties:
 (Nuclear quadrupole moments (NQMom) in fm**2, nuclear magnetic moments (NMagM)
  in nuclear magnetons)

  Atom         1           2           3           4           5           6           7           8           9          10
 IAtWgt=          12          12          12          12          12          12          12          12          12          12
 AtmWgt=  12.0000000  12.0000000  12.0000000  12.0000000  12.0000000  12.0000000  12.0000000  12.0000000  12.0000000  12.0000000
 NucSpn=           0           0           0           0           0           0           0           0           0           0
 AtZEff=  -3.6000000  -3.6000000  -3.6000000  -3.6000000  -3.6000000  -3.6000000  -3.6000000  -3.6000000  -3.6000000  -3.6000000
 NQMom=    0.0000000   0.0000000   0.0000000   0.0000000   0.0000000   0.0000000   0.0000000   0.0000000   0.0000000   0.0000000
 NMagM=    0.0000000   0.0000000   0.0000000   0.0000000   0.0000000   0.0000000   0.0000000   0.0000000   0.0000000   0.0000000
 AtZNuc=   6.0000000   6.0000000   6.0000000   6.0000000   6.0000000   6.0000000   6.0000000   6.0000000   6.0000000   6.0000000

  Atom        11          12          13          14          15          16          17          18          19          20
 IAtWgt=          12          12           1           1           1           1          16          14          14          12
 AtmWgt=  12.0000000  12.0000000   1.0078250   1.0078250   1.0078250   1.0078250  15.9949146  14.0030740  14.0030740  12.0000000
 NucSpn=           0           0           1           1           1           1           0           2           2           0
 AtZEff=  -3.6000000  -3.6000000  -1.0000000  -1.0000000  -1.0000000  -1.0000000  -5.6000000  -4.5500000  -4.5500000  -3.6000000
 NQMom=    0.0000000   0.0000000   0.0000000   0.0000000   0.0000000   0.0000000   0.0000000   2.0440000   2.0440000   0.0000000
 NMagM=    0.0000000   0.0000000   2.7928460   2.7928460   2.7928460   2.7928460   0.0000000   0.4037610   0.4037610   0.0000000
 AtZNuc=   6.0000000   6.0000000   1.0000000   1.0000000   1.0000000   1.0000000   8.0000000   7.0000000   7.0000000   6.0000000

  Atom        21          22          23          24          25          26          27          28          29          30
 IAtWgt=           1           1          12           1           1          12           1           1           1          12
 AtmWgt=   1.0078250   1.0078250  12.0000000   1.0078250   1.0078250  12.0000000   1.0078250   1.0078250   1.0078250  12.0000000
 NucSpn=           1           1           0           1           1           0           1           1           1           0
 AtZEff=  -1.0000000  -1.0000000  -3.6000000  -1.0000000  -1.0000000  -3.6000000  -1.0000000  -1.0000000  -1.0000000  -3.6000000
 NQMom=    0.0000000   0.0000000   0.0000000   0.0000000   0.0000000   0.0000000   0.0000000   0.0000000   0.0000000   0.0000000
 NMagM=    2.7928460   2.7928460   0.0000000   2.7928460   2.7928460   0.0000000   2.7928460   2.7928460   2.7928460   0.0000000
 AtZNuc=   1.0000000   1.0000000   6.0000000   1.0000000   1.0000000   6.0000000   1.0000000   1.0000000   1.0000000   6.0000000

  Atom        31          32          33          34          35          36          37          38          39          40
 IAtWgt=           1           1           1          16          12          12          12           1          12           1
 AtmWgt=   1.0078250   1.0078250   1.0078250  15.9949146  12.0000000  12.0000000  12.0000000   1.0078250  12.0000000   1.0078250
 NucSpn=           1           1           1           0           0           0           0           1           0           1
 AtZEff=  -1.0000000  -1.0000000  -1.0000000  -5.6000000  -3.6000000  -3.6000000  -3.6000000  -1.0000000  -3.6000000  -1.0000000
 NQMom=    0.0000000   0.0000000   0.0000000   0.0000000   0.0000000   0.0000000   0.0000000   0.0000000   0.0000000   0.0000000
 NMagM=    2.7928460   2.7928460   2.7928460   0.0000000   0.0000000   0.0000000   0.0000000   2.7928460   0.0000000   2.7928460
 AtZNuc=   1.0000000   1.0000000   1.0000000   8.0000000   6.0000000   6.0000000   6.0000000   1.0000000   6.0000000   1.0000000

  Atom        41          42
 IAtWgt=           1           1
 AtmWgt=   1.0078250   1.0078250
 NucSpn=           1           1
 AtZEff=  -1.0000000  -1.0000000
 NQMom=    0.0000000   0.0000000
 NMagM=    2.7928460   2.7928460
 AtZNuc=   1.0000000   1.0000000
 Leave Link  101 at Mon Feb 17 09:41:58 2020, MaxMem=    33554432 cpu:         8.1
 (Enter /opt/sys/apps/gaussian09/D.01/g09/l202.exe)
                          Input orientation:                          
 ---------------------------------------------------------------------
 Center     Atomic      Atomic             Coordinates (Angstroms)
 Number     Number       Type             X           Y           Z
 ---------------------------------------------------------------------
      1          6           0        2.756849   -1.608301   -0.191564
      2          6           0        1.418727   -1.937559   -0.220842
      3          6           0        0.417344   -0.958169   -0.103809
      4          6           0        0.846182    0.373952    0.042589
      5          6           0        2.179620    0.734302    0.072269
      6          6           0        3.182373   -0.256111   -0.042533
      7          6           0       -1.417529    1.062887    0.118281
      8          6           0       -1.797597   -0.339192   -0.026003
      9          6           0       -3.232348   -0.645588   -0.051024
     10          6           0       -4.176493    0.395461    0.057512
     11          6           0       -3.745515    1.819524    0.200496
     12          6           0       -2.313154    2.072854    0.223161
     13          1           0        3.484882   -2.402456   -0.265497
     14          1           0        1.107116   -2.970005   -0.327990
     15          1           0        2.413705    1.784443    0.165209
     16          1           0       -1.982249    3.098436    0.328333
     17          8           0       -0.083495    1.370601    0.150706
     18          7           0       -0.913392   -1.291048   -0.131592
     19          7           0        4.516664    0.074098   -0.008876
     20          6           0        4.966904    1.438792    0.268823
     21          1           0        4.302590    1.893141    1.007401
     22          1           0        5.944303    1.365710    0.753535
     23          6           0        5.567370   -0.915802   -0.252085
     24          1           0        5.232131   -1.618267   -1.018136
     25          1           0        6.416895   -0.384257   -0.689538
     26          6           0        6.023226   -1.665432    1.005200
     27          1           0        5.201492   -2.226850    1.454802
     28          1           0        6.823249   -2.368796    0.756477
     29          1           0        6.406764   -0.971777    1.758039
     30          6           0        5.076772    2.326032   -0.976565
     31          1           0        5.779974    1.902184   -1.698391
     32          1           0        4.111447    2.437509   -1.474697
     33          1           0        5.436165    3.321591   -0.700652
     34          8           0       -4.565018    2.731041    0.294227
     35          6           0       -3.680660   -1.969852   -0.183225
     36          6           0       -5.543950    0.097778    0.032183
     37          6           0       -5.975282   -1.213991   -0.098388
     38          1           0       -5.374398   -3.275234   -0.308301
     39          6           0       -5.038360   -2.249283   -0.206136
     40          1           0       -7.035992   -1.437918   -0.117191
     41          1           0       -2.947081   -2.761360   -0.265945
     42          1           0       -6.244529    0.919480    0.117262
 ---------------------------------------------------------------------
                    Distance matrix (angstroms):
                    1          2          3          4          5
     1  C    0.000000
     2  C    1.378346   0.000000
     3  C    2.429744   1.405585   0.000000
     4  C    2.763114   2.395889   1.407082   0.000000
     5  C    2.427053   2.793512   2.449709   1.381589   0.000000
     6  C    1.425377   2.443258   2.853423   2.421159   1.414076
     7  C    4.965550   4.142708   2.738750   2.367436   3.612418
     8  C    4.730859   3.596871   2.301119   2.739132   4.120715
     9  C    6.067705   4.830169   3.663434   4.205072   5.586474
    10  C    7.221380   6.068522   4.791834   5.022743   6.365155
    11  C    7.361008   6.400203   5.013739   4.816461   6.025062
    12  C    6.279158   5.496133   4.092630   3.591695   4.690363
    13  H    1.079898   2.118282   3.394392   3.842668   3.414241
    14  H    2.143471   1.083756   2.138581   3.374531   3.877158
    15  H    3.428665   3.871991   3.402902   2.112261   1.079921
    16  H    6.699456   6.101596   4.732952   3.937574   4.793313
    17  O    4.130200   3.652210   2.395576   1.367222   2.352172
    18  N    3.684415   2.421719   1.372020   2.428717   3.702745
    19  N    2.441473   3.699852   4.228358   3.683069   2.429862
    20  C    3.792238   4.922304   5.155848   4.262090   2.881648
    21  H    4.010851   4.949697   4.945694   3.896864   2.593142
    22  H    4.460697   5.686988   6.056627   5.242124   3.877582
    23  C    2.895210   4.272727   5.152334   4.903051   3.782182
    24  H    2.609663   3.908922   4.945088   4.932608   4.005170
    25  H    3.891298   5.254912   6.055333   5.669544   4.448148
    26  C    3.479185   4.772698   5.758128   5.646901   4.626272
    27  H    3.011545   4.147382   5.189113   5.265666   4.451014
    28  H    4.244142   5.509081   6.615556   6.614955   5.626780
    29  H    4.186645   5.452450   6.272146   5.972757   4.860172
    30  C    4.634355   5.668388   5.766971   4.769401   3.468019
    31  H    4.871685   5.995603   6.283479   5.450579   4.178725
    32  H    4.455328   5.288111   5.201573   4.149986   3.004327
    33  H    5.633981   6.635411   6.622774   5.505354   4.230433
    34  O    8.524999   7.606992   6.212297   5.907646   7.037497
    35  C    6.447660   5.099629   4.221783   5.102618   6.459149
    36  C    8.477266   7.258477   6.055621   6.396106   7.749858
    37  C    8.741526   7.430338   6.397745   7.005270   8.386143
    38  H    8.301173   6.924130   6.241385   7.220478   8.560631
    39  C    7.821531   6.464624   5.607330   6.447562   7.815274
    40  H    9.794605   8.470104   7.468772   8.089318   9.470054
    41  H    5.819785   4.443081   3.820621   4.930945   6.214266
    42  H    9.354670   8.185504   6.924954   7.112057   8.426304
                    6          7          8          9         10
     6  C    0.000000
     7  C    4.787977   0.000000
     8  C    4.980690   1.459827   0.000000
     9  C    6.426540   2.498223   1.467316   0.000000
    10  C    7.388333   2.839196   2.491152   1.409600   0.000000
    11  C    7.236225   2.449240   2.916461   2.530490   1.494704
    12  C    5.974570   1.353948   2.479082   2.882711   2.512592
    13  H    2.178995   6.015773   5.676178   6.946493   8.162680
    14  H    3.428323   4.778829   3.930614   4.930576   6.276265
    15  H    2.190403   3.898872   4.720323   6.150587   6.735843
    16  H    6.169591   2.122849   3.460771   3.965397   3.492009
    17  O    3.653686   1.369448   2.427501   3.744461   4.208589
    18  N    4.225437   2.420248   1.303456   2.408458   3.678030
    19  N    1.374955   6.017352   6.327795   7.782475   8.699348
    20  C    2.480764   6.397262   7.000473   8.466090   9.205156
    21  H    2.641312   5.848044   6.577500   8.021265   8.662574
    22  H    3.300346   7.395393   7.965638   9.428869  10.190994
    23  C    2.483408   7.269195   7.390962   8.806161   9.836571
    24  H    2.647410   7.259340   7.213697   8.574894   9.681649
    25  H    3.301086   8.007809   8.241370   9.673876  10.648282
    26  C    3.339817   7.974660   7.999223   9.371304  10.448907
    27  H    3.194161   7.511331   7.398870   8.711920   9.837456
    28  H    4.284604   8.949535   8.891037  10.234087  11.363274
    29  H    3.761772   8.249135   8.419887   9.812828  10.805853
    30  C    3.335960   6.705981   7.433972   8.872916   9.508909
    31  H    3.761334   7.470527   8.077142   9.509307  10.221773
    32  H    3.189022   5.915805   6.687719   8.090962   8.672230
    33  H    4.279328   7.262611   8.135342   9.555294  10.076718
    34  O    8.310147   3.566564   4.145781   3.646482   2.379479
    35  C    7.075163   3.796074   2.495937   1.404328   2.428685
    36  C    8.733816   4.238655   3.772200   2.429613   1.399712
    37  C    9.207785   5.099434   4.268907   2.801609   2.418736
    38  H    9.077669   5.887111   4.636113   3.401413   3.878505
    39  C    8.460493   4.917940   3.766091   2.420243   2.794100
    40  H   10.286750   6.154396   5.353158   3.885855   3.401255
    41  H    6.625436   4.136668   2.691800   2.145707   3.403175
    42  H    9.501265   4.829129   4.623850   3.398675   2.134230
                   11         12         13         14         15
    11  C    0.000000
    12  C    1.454768   0.000000
    13  H    8.385756   7.340599   0.000000
    14  H    6.838634   6.118205   2.445360   0.000000
    15  H    6.159421   4.736004   4.343161   4.955319   0.000000
    16  H    2.181987   1.082764   7.778301   6.841119   4.591034
    17  O    3.689771   2.338758   5.209846   4.526318   2.531300
    18  N    4.219818   3.660740   4.538499   2.634373   4.540518
    19  N    8.447127   7.120061   2.695134   4.581857   2.716251
    20  C    8.721002   7.307760   4.151755   5.889960   2.578573
    21  H    8.088789   6.664488   4.554236   5.970302   2.070988
    22  H    9.716192   8.304634   4.613703   6.585324   3.603691
    23  C    9.716824   8.441598   2.558725   4.911147   4.172656
    24  H    9.690284   8.490966   2.057740   4.395366   4.574086
    25  H   10.436637   9.115051   3.584639   5.916972   4.632427
    26  C   10.402921   9.169602   2.932758   5.258083   5.063187
    27  H    9.899261   8.744958   2.436599   4.527089   5.052254
    28  H   11.381999  10.172833   3.491455   5.849076   6.086302
    29  H   10.643593   9.362830   3.831310   6.035784   5.106699
    30  C    8.914863   7.490958   5.039676   6.650325   2.947693
    31  H    9.713267   8.319868   5.084344   6.888528   3.849499
    32  H    8.057297   6.655162   5.027923   6.291435   2.449105
    33  H    9.347273   7.903462   6.063133   7.646157   3.499687
    34  O    1.229323   2.347159   9.563837   8.066113   7.043810
    35  C    3.809307   4.287038   7.179061   4.893268   7.166409
    36  C    2.495417   3.791496   9.373345   7.333328   8.135527
    37  C    3.776692   4.931321   9.535989   7.300457   8.912642
    38  H    5.372960   6.185120   8.902271   6.488728   9.299414
    39  C    4.288588   5.127564   8.524825   6.188793   8.481869
    40  H    4.641022   5.894621  10.566036   8.288663   9.987999
    41  H    4.673282   4.900073   6.441969   4.060037   7.041892
    42  H    2.657457   4.098438  10.288013   8.329047   8.701464
                   16         17         18         19         20
    16  H    0.000000
    17  O    2.573370   0.000000
    18  N    4.541096   2.802284   0.000000
    19  N    7.176085   4.782033   5.600374   0.000000
    20  C    7.144836   5.052240   6.495401   1.463633   0.000000
    21  H    6.435299   4.499413   6.216336   2.094651   1.092357
    22  H    8.124861   6.057869   7.407415   2.070673   1.093433
    23  C    8.570165   6.109185   6.492734   1.463911   2.485160
    24  H    8.723964   6.209299   6.217755   2.096330   3.327494
    25  H    9.149362   6.785322   7.407204   2.069847   2.518816
    26  C    9.340247   6.873114   7.039114   2.514766   3.360696
    27  H    9.012976   6.524829   6.386249   2.811709   3.859858
    28  H   10.373559   7.877382   7.861668   3.445843   4.263983
    29  H    9.433251   7.084751   7.566857   2.790756   3.178333
    30  C    7.220052   5.367676   7.048356   2.514229   1.533055
    31  H    8.111149   6.171062   7.579758   2.791471   2.178473
    32  H    6.389121   4.623609   6.399615   2.810435   2.183828
    33  H    7.492761   5.915895   7.868745   3.445323   2.169106
    34  O    2.608991   4.685664   5.449119   9.467215   9.619152
    35  C    5.369715   4.920339   2.849775   8.450104   9.306104
    36  C    4.666622   5.608092   4.837120  10.060725  10.598696
    37  C    5.892659   6.438581   5.062586  10.571098  11.265147
    38  H    7.248148   7.056071   4.885571  10.447047  11.379703
    39  C    6.182521   6.146672   4.235461   9.835420  10.673930
    40  H    6.805683   7.503117   6.124378  11.651685  12.348845
    41  H    5.968356   5.044485   2.513118   7.988329   8.975434
    42  H    4.791600   6.177619   5.776624  10.795085  11.224477
                   21         22         23         24         25
    21  H    0.000000
    22  H    1.742944   0.000000
    23  C    3.328082   2.521636   0.000000
    24  H    4.158946   3.542616   1.092097   0.000000
    25  H    3.540682   2.316935   1.093435   1.741960   0.000000
    26  C    3.952725   3.042595   1.533139   2.173004   2.160677
    27  H    4.240579   3.734974   2.183157   2.546906   3.077425
    28  H    4.957902   3.836547   2.169244   2.498840   2.488871
    29  H    3.633009   2.585873   2.179062   3.082995   2.517124
    30  C    2.173218   2.160573   3.357834   3.947577   3.037100
    31  H    3.082865   2.515303   3.174594   3.627183   2.579004
    32  H    2.548271   3.077846   3.854762   4.232458   3.727456
    33  H    2.498581   2.489646   4.263090   4.954254   3.833440
    34  O    8.935612  10.607588  10.782541  10.799208  11.457542
    35  C    8.948329  10.229537   9.308159   8.958713  10.233821
    36  C   10.056278  11.580499  11.161074  10.962294  11.992291
    37  C   10.794058  12.225267  11.547526  11.252354  12.433984
    38  H   11.049311  12.279205  11.193407  10.758618  12.146509
    39  C   10.290077  11.602070  10.689330  10.321846  11.616146
    40  H   11.871146  13.308139  12.614893  12.302482  13.506218
    41  H    8.708819   9.855393   8.712184   8.292886   9.670269
    42  H   10.629303  12.213582  11.959332  11.808599  12.753913
                   26         27         28         29         30
    26  C    0.000000
    27  H    1.092052   0.000000
    28  H    1.093901   1.771412   0.000000
    29  H    1.093172   1.766308   1.768686   0.000000
    30  C    4.555761   5.162929   5.300474   4.485808   0.000000
    31  H    4.482908   5.227445   5.035481   4.538658   1.093240
    32  H    5.161291   5.614838   5.952527   5.228986   1.091978
    33  H    5.303299   5.957034   6.035540   5.041848   1.093814
    34  O   11.486748  11.014188  12.486578  11.671915   9.733605
    35  C    9.781127   9.035586  10.553402  10.320891   9.786554
    36  C   11.741177  11.085678  12.631556  12.121967  10.898735
    37  C   12.057608  11.329544  12.878927  12.522781  11.638336
    38  H   11.585447  10.772980  12.277540  12.180782  11.876352
    39  C   11.143020  10.373706  11.901204  11.682502  11.128475
    40  H   13.109336  12.363235  13.917916  13.580922  12.713178
    41  H    9.125968   8.345413   9.831521   9.736197   9.527265
    42  H   12.568533  11.945702  13.490299  12.896674  11.460659
                   31         32         33         34         35
    31  H    0.000000
    32  H    1.766521   0.000000
    33  H    1.768730   1.770769   0.000000
    34  O   10.567705   8.859813  10.067879   0.000000
    35  C   10.334021   9.044870  10.553843   4.807125   0.000000
    36  C   11.596639  10.048468  11.467037   2.821533   2.791656
    37  C   12.266075  10.815257  12.294525   4.207883   2.417398
    38  H   12.375703  11.134504  12.670451   6.090442   2.142059
    39  C   11.683229  10.358293  11.874125   5.027728   1.386346
    40  H   13.338120  11.879695  13.362187   4.863662   3.397876
    41  H    9.998102   8.849415  10.366778   5.753085   1.082343
    42  H   12.200450  10.587019  11.953147   2.476657   3.874527
                   36         37         38         39         40
    36  C    0.000000
    37  C    1.387024   0.000000
    38  H    3.394391   2.157278   0.000000
    39  C    2.412699   1.400451   1.084406   0.000000
    40  H    2.146361   1.084252   2.484582   2.157952   0.000000
    41  H    3.873923   3.404765   2.481477   2.153890   4.300327
    42  H    1.083164   2.161180   4.305097   3.405950   2.497741
                   41         42
    41  H    0.000000
    42  H    4.956672   0.000000
 Symmetry turned off by external request.
 Stoichiometry    C20H18N2O2
 Framework group  C1[X(C20H18N2O2)]
 Deg. of freedom   120
 Full point group                 C1      NOp   1
 Rotational constants (GHZ):      0.6517522      0.1063131      0.0929428
 Leave Link  202 at Mon Feb 17 09:41:58 2020, MaxMem=    33554432 cpu:         0.3
 (Enter /opt/sys/apps/gaussian09/D.01/g09/l301.exe)
 Standard basis: 6-311++G(d,p) (5D, 7F)
 Ernie: Thresh=  0.10000D-02 Tol=  0.10000D-05 Strict=F.
   654 basis functions,  1026 primitive gaussians,   678 cartesian basis functions
    84 alpha electrons       84 beta electrons
       nuclear repulsion energy      1892.7589072801 Hartrees.
 IExCor=20419 DFT=T Ex+Corr=CAM-B3LYP ExCW=0 ScaHFX=  1.000000
 ScaDFX=  1.000000  1.000000  1.000000  0.810000 ScalE2=  1.000000  1.000000
 IRadAn=      0 IRanWt=     -1 IRanGd=            0 ICorTp=0 IEmpDi=  4
  HFx wShort=  0.000000 wLong=  0.330000 cFull=  0.190000 cShort=  0.000000 cLong=  0.810000
  DFx wShort=  0.000000 wLong=  0.330000 cFull=  0.190000 cShort=  0.000000 cLong=  0.810000
 NAtoms=   42 NActive=   42 NUniq=   42 SFac= 1.00D+00 NAtFMM=   60 NAOKFM=F Big=F
 Integral buffers will be    131072 words long.
 Raffenetti 1 integral format.
 Two-electron integral symmetry is turned off.
 Leave Link  301 at Mon Feb 17 09:41:59 2020, MaxMem=    33554432 cpu:         1.2
 (Enter /opt/sys/apps/gaussian09/D.01/g09/l302.exe)
 NPDir=0 NMtPBC=     1 NCelOv=     1 NCel=       1 NClECP=     1 NCelD=      1
         NCelK=      1 NCelE2=     1 NClLst=     1 CellRange=     0.0.
 One-electron integrals computed using PRISM.
 PrsmSu:  requested number of processors reduced to:   7 ShMem   1 Linda.
 PrsmSu:  requested number of processors reduced to:  22 ShMem   1 Linda.
 NBasis=   654 RedAO= T EigKep=  1.09D-06  NBF=   654
 NBsUse=   646 1.00D-06 EigRej=  6.66D-07 NBFU=   646
 Precomputing XC quadrature grid using
 IXCGrd= 4 IRadAn=           0 IRanWt=          -1 IRanGd=           0 AccXCQ= 0.00D+00.
 Generated NRdTot=       0 NPtTot=           0 NUsed=           0 NTot=          32
 NSgBfM=   658   658   658   659   659 MxSgAt=    42 MxSgA2=    42.
 Leave Link  302 at Mon Feb 17 09:42:00 2020, MaxMem=    33554432 cpu:        22.4
 (Enter /opt/sys/apps/gaussian09/D.01/g09/l308.exe)
 Leave Link  308 at Mon Feb 17 09:42:00 2020, MaxMem=    33554432 cpu:         3.3
 (Enter /opt/sys/apps/gaussian09/D.01/g09/l303.exe)
 DipDrv:  MaxL=1.
 Leave Link  303 at Mon Feb 17 09:42:00 2020, MaxMem=    33554432 cpu:         2.5
 (Enter /opt/sys/apps/gaussian09/D.01/g09/l401.exe)
 ExpMin= 3.60D-02 ExpMax= 8.59D+03 ExpMxC= 1.30D+03 IAcc=3 IRadAn=         5 AccDes= 0.00D+00
 Harris functional with IExCor=20419 and IRadAn=       5 diagonalized for initial guess.
 HarFok:  IExCor=20419 AccDes= 0.00D+00 IRadAn=         5 IDoV= 1 UseB2=F ITyADJ=14
 ICtDFT=  3500011 ScaDFX=  1.000000  1.000000  1.000000  1.000000
 CalDSu:  requested number of processors reduced to:  18 ShMem   1 Linda.
 FoFCou: FMM=F IPFlag=           0 FMFlag=      100000 FMFlg1=           0
         NFxFlg=           0 DoJE=T BraDBF=F KetDBF=T FulRan=T
         wScrn=  0.000000 ICntrl=     500 IOpCl=  0 I1Cent=   200000004 NGrid=           0
         NMat0=    1 NMatS0=      1 NMatT0=    0 NMatD0=    1 NMtDS0=    0 NMtDT0=    0
 Symmetry not used in FoFCou.
 CoulSu:  requested number of processors reduced to:  20 ShMem   1 Linda.
 CoulSu:  requested number of processors reduced to:  20 ShMem   1 Linda.
 Harris En= -981.816555422814    
 JPrj=0 DoOrth=F DoCkMO=F.
 Leave Link  401 at Mon Feb 17 09:42:05 2020, MaxMem=    33554432 cpu:        94.8
 (Enter /opt/sys/apps/gaussian09/D.01/g09/l502.exe)
 Closed shell SCF:
 Using DIIS extrapolation, IDIIS=  1040.
 Two-electron integral symmetry not used.
 IVT=     1418026 IEndB=     1418026 NGot=    33554432 MDV=    32613409
 LenX=    32613409 LenY=    32153047
 Requested convergence on RMS density matrix=1.00D-08 within 128 cycles.
 Requested convergence on MAX density matrix=1.00D-06.
 Requested convergence on             energy=1.00D-06.
 No special actions if energy rises.
 Fock matrices will be formed incrementally for  20 cycles.

 Cycle   1  Pass 1  IDiag  1:
 FoFJK:  IHMeth= 1 ICntrl=       0 DoSepK=T KAlg= 0 I1Cent=   0 FoldK=F
 IRaf=         1 NMat=   1 IRICut=       1 DoRegI=T DoRafI=F ISym2E= 0.
 FoFCou: FMM=F IPFlag=           0 FMFlag=      100000 FMFlg1=           0
         NFxFlg=           0 DoJE=T BraDBF=F KetDBF=F FulRan=T
         wScrn=  0.000000 ICntrl=     500 IOpCl=  0 I1Cent=           0 NGrid=           0
         NMat0=    1 NMatS0=      1 NMatT0=    0 NMatD0=    1 NMtDS0=    0 NMtDT0=    0
 Symmetry not used in FoFCou.
 CoulSu:  requested number of processors reduced to:  20 ShMem   1 Linda.
 CoulSu:  requested number of processors reduced to:  20 ShMem   1 Linda.
 CoulSu:  requested number of processors reduced to:  21 ShMem   1 Linda.
 CalDSu:  requested number of processors reduced to:  18 ShMem   1 Linda.
 E= -1031.43922835036    
 DIIS: error= 4.47D-02 at cycle   1 NSaved=   1.
 NSaved= 1 IEnMin= 1 EnMin= -1031.43922835036     IErMin= 1 ErrMin= 4.47D-02
 ErrMax= 4.47D-02  0.00D+00 EMaxC= 1.00D-01 BMatC= 1.89D+00 BMatP= 1.89D+00
 IDIUse=3 WtCom= 5.53D-01 WtEn= 4.47D-01
 Coeff-Com:  0.100D+01
 Coeff-En:   0.100D+01
 Coeff:      0.100D+01
 Gap=     0.329 Goal=   None    Shift=    0.000
 GapD=    0.329 DampG=1.000 DampE=0.500 DampFc=0.5000 IDamp=-1.
 Damping current iteration by 5.00D-01
 RMSDP=1.13D-02 MaxDP=1.09D+00              OVMax= 2.10D-01

 Cycle   2  Pass 1  IDiag  1:
 RMSU=  5.60D-03    CP:  1.02D+00
 CoulSu:  requested number of processors reduced to:  21 ShMem   1 Linda.
 CoulSu:  requested number of processors reduced to:  21 ShMem   1 Linda.
 CoulSu:  requested number of processors reduced to:  21 ShMem   1 Linda.
 CalDSu:  requested number of processors reduced to:  18 ShMem   1 Linda.
 E= -1031.63400285388     Delta-E=       -0.194774503518 Rises=F Damp=T
 DIIS: error= 2.04D-02 at cycle   2 NSaved=   2.
 NSaved= 2 IEnMin= 2 EnMin= -1031.63400285388     IErMin= 2 ErrMin= 2.04D-02
 ErrMax= 2.04D-02  0.00D+00 EMaxC= 1.00D-01 BMatC= 3.73D-01 BMatP= 1.89D+00
 IDIUse=3 WtCom= 7.96D-01 WtEn= 2.04D-01
 Coeff-Com: -0.462D+00 0.146D+01
 Coeff-En:   0.000D+00 0.100D+01
 Coeff:     -0.368D+00 0.137D+01
 Gap=     0.315 Goal=   None    Shift=    0.000
 RMSDP=6.59D-03 MaxDP=5.64D-01 DE=-1.95D-01 OVMax= 2.09D-01

 Cycle   3  Pass 1  IDiag  1:
 RMSU=  5.64D-03    CP:  9.47D-01  1.39D+00
 CoulSu:  requested number of processors reduced to:  21 ShMem   1 Linda.
 CoulSu:  requested number of processors reduced to:  21 ShMem   1 Linda.
 CoulSu:  requested number of processors reduced to:  21 ShMem   1 Linda.
 CalDSu:  requested number of processors reduced to:  18 ShMem   1 Linda.
 E= -1031.77612382845     Delta-E=       -0.142120974567 Rises=F Damp=F
 DIIS: error= 1.86D-02 at cycle   3 NSaved=   3.
 NSaved= 3 IEnMin= 3 EnMin= -1031.77612382845     IErMin= 3 ErrMin= 1.86D-02
 ErrMax= 1.86D-02  0.00D+00 EMaxC= 1.00D-01 BMatC= 1.12D-01 BMatP= 3.73D-01
 IDIUse=3 WtCom= 8.14D-01 WtEn= 1.86D-01
 Coeff-Com: -0.313D+00 0.680D+00 0.633D+00
 Coeff-En:   0.000D+00 0.000D+00 0.100D+01
 Coeff:     -0.255D+00 0.553D+00 0.701D+00
 Gap=     0.248 Goal=   None    Shift=    0.000
 RMSDP=3.02D-03 MaxDP=2.02D-01 DE=-1.42D-01 OVMax= 8.64D-02

 Cycle   4  Pass 1  IDiag  1:
 RMSU=  1.92D-03    CP:  9.26D-01  1.67D+00  7.19D-01
 CoulSu:  requested number of processors reduced to:  21 ShMem   1 Linda.
 CoulSu:  requested number of processors reduced to:  21 ShMem   1 Linda.
 CoulSu:  requested number of processors reduced to:  22 ShMem   1 Linda.
 CalDSu:  requested number of processors reduced to:  18 ShMem   1 Linda.
 E= -1031.85603553076     Delta-E=       -0.079911702311 Rises=F Damp=F
 DIIS: error= 6.78D-03 at cycle   4 NSaved=   4.
 NSaved= 4 IEnMin= 4 EnMin= -1031.85603553076     IErMin= 4 ErrMin= 6.78D-03
 ErrMax= 6.78D-03  0.00D+00 EMaxC= 1.00D-01 BMatC= 1.12D-02 BMatP= 1.12D-01
 IDIUse=3 WtCom= 9.32D-01 WtEn= 6.78D-02
 Coeff-Com: -0.104D+00 0.221D+00 0.355D+00 0.527D+00
 Coeff-En:   0.000D+00 0.000D+00 0.000D+00 0.100D+01
 Coeff:     -0.965D-01 0.206D+00 0.331D+00 0.559D+00
 Gap=     0.245 Goal=   None    Shift=    0.000
 RMSDP=7.30D-04 MaxDP=6.33D-02 DE=-7.99D-02 OVMax= 2.17D-02

 Cycle   5  Pass 1  IDiag  1:
 RMSU=  4.66D-04    CP:  9.24D-01  1.67D+00  8.04D-01  8.56D-01
 CoulSu:  requested number of processors reduced to:  21 ShMem   1 Linda.
 CoulSu:  requested number of processors reduced to:  21 ShMem   1 Linda.
 CoulSu:  requested number of processors reduced to:  22 ShMem   1 Linda.
 CalDSu:  requested number of processors reduced to:  18 ShMem   1 Linda.
 E= -1031.86420964615     Delta-E=       -0.008174115393 Rises=F Damp=F
 DIIS: error= 9.06D-04 at cycle   5 NSaved=   5.
 NSaved= 5 IEnMin= 5 EnMin= -1031.86420964615     IErMin= 5 ErrMin= 9.06D-04
 ErrMax= 9.06D-04  0.00D+00 EMaxC= 1.00D-01 BMatC= 2.02D-04 BMatP= 1.12D-02
 IDIUse=3 WtCom= 9.91D-01 WtEn= 9.06D-03
 Coeff-Com:  0.305D-01-0.670D-01-0.349D-01 0.122D+00 0.950D+00
 Coeff-En:   0.000D+00 0.000D+00 0.000D+00 0.000D+00 0.100D+01
 Coeff:      0.302D-01-0.664D-01-0.346D-01 0.121D+00 0.950D+00
 Gap=     0.248 Goal=   None    Shift=    0.000
 RMSDP=5.46D-04 MaxDP=5.16D-02 DE=-8.17D-03 OVMax= 1.43D-02

 Cycle   6  Pass 1  IDiag  1:
 RMSU=  1.88D-04    CP:  9.13D-01  1.68D+00  8.19D-01  1.01D+00  1.32D+00
 CoulSu:  requested number of processors reduced to:  21 ShMem   1 Linda.
 CoulSu:  requested number of processors reduced to:  21 ShMem   1 Linda.
 CoulSu:  requested number of processors reduced to:  22 ShMem   1 Linda.
 CalDSu:  requested number of processors reduced to:  18 ShMem   1 Linda.
 E= -1031.86467967428     Delta-E=       -0.000470028127 Rises=F Damp=F
 DIIS: error= 3.80D-04 at cycle   6 NSaved=   6.
 NSaved= 6 IEnMin= 6 EnMin= -1031.86467967428     IErMin= 6 ErrMin= 3.80D-04
 ErrMax= 3.80D-04  0.00D+00 EMaxC= 1.00D-01 BMatC= 5.15D-05 BMatP= 2.02D-04
 IDIUse=3 WtCom= 9.96D-01 WtEn= 3.80D-03
 Coeff-Com:  0.244D-01-0.526D-01-0.560D-01-0.241D-01 0.391D+00 0.718D+00
 Coeff-En:   0.000D+00 0.000D+00 0.000D+00 0.000D+00 0.000D+00 0.100D+01
 Coeff:      0.243D-01-0.524D-01-0.558D-01-0.240D-01 0.389D+00 0.719D+00
 Gap=     0.249 Goal=   None    Shift=    0.000
 RMSDP=1.72D-04 MaxDP=1.55D-02 DE=-4.70D-04 OVMax= 5.97D-03

 Cycle   7  Pass 1  IDiag  1:
 RMSU=  7.98D-05    CP:  9.11D-01  1.68D+00  8.26D-01  1.06D+00  1.45D+00
                    CP:  1.09D+00
 CoulSu:  requested number of processors reduced to:  21 ShMem   1 Linda.
 CoulSu:  requested number of processors reduced to:  21 ShMem   1 Linda.
 CoulSu:  requested number of processors reduced to:  22 ShMem   1 Linda.
 CalDSu:  requested number of processors reduced to:  18 ShMem   1 Linda.
 E= -1031.86478678573     Delta-E=       -0.000107111451 Rises=F Damp=F
 DIIS: error= 1.77D-04 at cycle   7 NSaved=   7.
 NSaved= 7 IEnMin= 7 EnMin= -1031.86478678573     IErMin= 7 ErrMin= 1.77D-04
 ErrMax= 1.77D-04  0.00D+00 EMaxC= 1.00D-01 BMatC= 7.07D-06 BMatP= 5.15D-05
 IDIUse=3 WtCom= 9.98D-01 WtEn= 1.77D-03
 Coeff-Com: -0.715D-03 0.186D-02-0.384D-02-0.296D-01-0.107D+00 0.155D+00
 Coeff-Com:  0.985D+00
 Coeff-En:   0.000D+00 0.000D+00 0.000D+00 0.000D+00 0.000D+00 0.000D+00
 Coeff-En:   0.100D+01
 Coeff:     -0.714D-03 0.186D-02-0.384D-02-0.295D-01-0.107D+00 0.154D+00
 Coeff:      0.985D+00
 Gap=     0.249 Goal=   None    Shift=    0.000
 RMSDP=8.07D-05 MaxDP=6.31D-03 DE=-1.07D-04 OVMax= 5.18D-03

 Cycle   8  Pass 1  IDiag  1:
 RMSU=  3.02D-05    CP:  9.11D-01  1.68D+00  8.28D-01  1.08D+00  1.56D+00
                    CP:  1.27D+00  1.15D+00
 CoulSu:  requested number of processors reduced to:  21 ShMem   1 Linda.
 CoulSu:  requested number of processors reduced to:  21 ShMem   1 Linda.
 CoulSu:  requested number of processors reduced to:  22 ShMem   1 Linda.
 CalDSu:  requested number of processors reduced to:  18 ShMem   1 Linda.
 E= -1031.86481788933     Delta-E=       -0.000031103604 Rises=F Damp=F
 DIIS: error= 6.18D-05 at cycle   8 NSaved=   8.
 NSaved= 8 IEnMin= 8 EnMin= -1031.86481788933     IErMin= 8 ErrMin= 6.18D-05
 ErrMax= 6.18D-05  0.00D+00 EMaxC= 1.00D-01 BMatC= 2.12D-06 BMatP= 7.07D-06
 IDIUse=1 WtCom= 1.00D+00 WtEn= 0.00D+00
 Coeff-Com: -0.545D-02 0.119D-01 0.114D-01-0.607D-02-0.121D+00-0.954D-01
 Coeff-Com:  0.380D+00 0.825D+00
 Coeff:     -0.545D-02 0.119D-01 0.114D-01-0.607D-02-0.121D+00-0.954D-01
 Coeff:      0.380D+00 0.825D+00
 Gap=     0.250 Goal=   None    Shift=    0.000
 RMSDP=2.60D-05 MaxDP=1.46D-03 DE=-3.11D-05 OVMax= 2.27D-03

 Cycle   9  Pass 1  IDiag  1:
 RMSU=  1.36D-05    CP:  9.11D-01  1.68D+00  8.29D-01  1.08D+00  1.58D+00
                    CP:  1.29D+00  1.34D+00  1.22D+00
 CoulSu:  requested number of processors reduced to:  21 ShMem   1 Linda.
 CoulSu:  requested number of processors reduced to:  22 ShMem   1 Linda.
 CoulSu:  requested number of processors reduced to:  22 ShMem   1 Linda.
 CalDSu:  requested number of processors reduced to:  18 ShMem   1 Linda.
 E= -1031.86482485990     Delta-E=       -0.000006970565 Rises=F Damp=F
 DIIS: error= 3.81D-05 at cycle   9 NSaved=   9.
 NSaved= 9 IEnMin= 9 EnMin= -1031.86482485990     IErMin= 9 ErrMin= 3.81D-05
 ErrMax= 3.81D-05  0.00D+00 EMaxC= 1.00D-01 BMatC= 3.81D-07 BMatP= 2.12D-06
 IDIUse=1 WtCom= 1.00D+00 WtEn= 0.00D+00
 Coeff-Com: -0.101D-02 0.213D-02 0.362D-02 0.362D-02-0.774D-02-0.670D-01
 Coeff-Com: -0.102D+00 0.242D+00 0.926D+00
 Coeff:     -0.101D-02 0.213D-02 0.362D-02 0.362D-02-0.774D-02-0.670D-01
 Coeff:     -0.102D+00 0.242D+00 0.926D+00
 Gap=     0.250 Goal=   None    Shift=    0.000
 RMSDP=1.35D-05 MaxDP=1.09D-03 DE=-6.97D-06 OVMax= 1.31D-03

 Cycle  10  Pass 1  IDiag  1:
 RMSU=  7.49D-06    CP:  9.11D-01  1.68D+00  8.29D-01  1.09D+00  1.59D+00
                    CP:  1.30D+00  1.38D+00  1.44D+00  1.33D+00
 CoulSu:  requested number of processors reduced to:  21 ShMem   1 Linda.
 CoulSu:  requested number of processors reduced to:  22 ShMem   1 Linda.
 CoulSu:  requested number of processors reduced to:  22 ShMem   1 Linda.
 CalDSu:  requested number of processors reduced to:  18 ShMem   1 Linda.
 E= -1031.86482632285     Delta-E=       -0.000001462948 Rises=F Damp=F
 DIIS: error= 1.21D-05 at cycle  10 NSaved=  10.
 NSaved=10 IEnMin=10 EnMin= -1031.86482632285     IErMin=10 ErrMin= 1.21D-05
 ErrMax= 1.21D-05  0.00D+00 EMaxC= 1.00D-01 BMatC= 9.52D-08 BMatP= 3.81D-07
 IDIUse=1 WtCom= 1.00D+00 WtEn= 0.00D+00
 Coeff-Com:  0.776D-03-0.169D-02-0.907D-03 0.229D-02 0.198D-01-0.937D-02
 Coeff-Com: -0.972D-01-0.745D-01 0.391D+00 0.770D+00
 Coeff:      0.776D-03-0.169D-02-0.907D-03 0.229D-02 0.198D-01-0.937D-02
 Coeff:     -0.972D-01-0.745D-01 0.391D+00 0.770D+00
 Gap=     0.250 Goal=   None    Shift=    0.000
 RMSDP=5.81D-06 MaxDP=3.66D-04 DE=-1.46D-06 OVMax= 4.34D-04

 Cycle  11  Pass 1  IDiag  1:
 RMSU=  3.28D-06    CP:  9.11D-01  1.68D+00  8.29D-01  1.09D+00  1.59D+00
                    CP:  1.29D+00  1.39D+00  1.50D+00  1.51D+00  1.10D+00
 CoulSu:  requested number of processors reduced to:  22 ShMem   1 Linda.
 CoulSu:  requested number of processors reduced to:  22 ShMem   1 Linda.
 CoulSu:  requested number of processors reduced to:  22 ShMem   1 Linda.
 CalDSu:  requested number of processors reduced to:  18 ShMem   1 Linda.
 E= -1031.86482656142     Delta-E=       -0.000000238573 Rises=F Damp=F
 DIIS: error= 4.91D-06 at cycle  11 NSaved=  11.
 NSaved=11 IEnMin=11 EnMin= -1031.86482656142     IErMin=11 ErrMin= 4.91D-06
 ErrMax= 4.91D-06  0.00D+00 EMaxC= 1.00D-01 BMatC= 1.48D-08 BMatP= 9.52D-08
 IDIUse=1 WtCom= 1.00D+00 WtEn= 0.00D+00
 Coeff-Com:  0.419D-03-0.898D-03-0.859D-03 0.233D-03 0.744D-02 0.925D-02
 Coeff-Com: -0.308D-02-0.917D-01-0.537D-01 0.197D+00 0.936D+00
 Coeff:      0.419D-03-0.898D-03-0.859D-03 0.233D-03 0.744D-02 0.925D-02
 Coeff:     -0.308D-02-0.917D-01-0.537D-01 0.197D+00 0.936D+00
 Gap=     0.250 Goal=   None    Shift=    0.000
 RMSDP=3.28D-06 MaxDP=4.25D-04 DE=-2.39D-07 OVMax= 2.27D-04

 Cycle  12  Pass 1  IDiag  1:
 RMSU=  1.15D-06    CP:  9.11D-01  1.68D+00  8.29D-01  1.09D+00  1.59D+00
                    CP:  1.29D+00  1.41D+00  1.51D+00  1.60D+00  1.14D+00
                    CP:  1.54D+00
 CoulSu:  requested number of processors reduced to:  22 ShMem   1 Linda.
 CoulSu:  requested number of processors reduced to:  22 ShMem   1 Linda.
 CoulSu:  requested number of processors reduced to:  22 ShMem   1 Linda.
 CalDSu:  requested number of processors reduced to:  18 ShMem   1 Linda.
 E= -1031.86482661509     Delta-E=       -0.000000053670 Rises=F Damp=F
 DIIS: error= 2.81D-06 at cycle  12 NSaved=  12.
 NSaved=12 IEnMin=12 EnMin= -1031.86482661509     IErMin=12 ErrMin= 2.81D-06
 ErrMax= 2.81D-06  0.00D+00 EMaxC= 1.00D-01 BMatC= 4.37D-09 BMatP= 1.48D-08
 IDIUse=1 WtCom= 1.00D+00 WtEn= 0.00D+00
 Coeff-Com:  0.614D-04-0.126D-03-0.230D-03-0.323D-03-0.559D-03 0.605D-02
 Coeff-Com:  0.211D-01-0.307D-01-0.997D-01-0.837D-01 0.438D+00 0.750D+00
 Coeff:      0.614D-04-0.126D-03-0.230D-03-0.323D-03-0.559D-03 0.605D-02
 Coeff:      0.211D-01-0.307D-01-0.997D-01-0.837D-01 0.438D+00 0.750D+00
 Gap=     0.250 Goal=   None    Shift=    0.000
 RMSDP=9.31D-07 MaxDP=5.57D-05 DE=-5.37D-08 OVMax= 7.21D-05

 Cycle  13  Pass 1  IDiag  1:
 RMSU=  5.50D-07    CP:  9.11D-01  1.68D+00  8.29D-01  1.09D+00  1.59D+00
                    CP:  1.29D+00  1.41D+00  1.50D+00  1.63D+00  1.17D+00
                    CP:  1.64D+00  9.52D-01
 CoulSu:  requested number of processors reduced to:  22 ShMem   1 Linda.
 CoulSu:  requested number of processors reduced to:  22 ShMem   1 Linda.
 CoulSu:  requested number of processors reduced to:  22 ShMem   1 Linda.
 CalDSu:  requested number of processors reduced to:  18 ShMem   1 Linda.
 E= -1031.86482662540     Delta-E=       -0.000000010311 Rises=F Damp=F
 DIIS: error= 1.42D-06 at cycle  13 NSaved=  13.
 NSaved=13 IEnMin=13 EnMin= -1031.86482662540     IErMin=13 ErrMin= 1.42D-06
 ErrMax= 1.42D-06  0.00D+00 EMaxC= 1.00D-01 BMatC= 5.50D-10 BMatP= 4.37D-09
 IDIUse=1 WtCom= 1.00D+00 WtEn= 0.00D+00
 Coeff-Com: -0.538D-04 0.117D-03 0.884D-04-0.154D-03-0.162D-02 0.326D-03
 Coeff-Com:  0.831D-02 0.530D-02-0.266D-01-0.671D-01-0.170D-01 0.241D+00
 Coeff-Com:  0.857D+00
 Coeff:     -0.538D-04 0.117D-03 0.884D-04-0.154D-03-0.162D-02 0.326D-03
 Coeff:      0.831D-02 0.530D-02-0.266D-01-0.671D-01-0.170D-01 0.241D+00
 Coeff:      0.857D+00
 Gap=     0.250 Goal=   None    Shift=    0.000
 RMSDP=6.32D-07 MaxDP=5.14D-05 DE=-1.03D-08 OVMax= 3.42D-05

 Cycle  14  Pass 1  IDiag  1:
 RMSU=  2.43D-07    CP:  9.11D-01  1.68D+00  8.29D-01  1.09D+00  1.59D+00
                    CP:  1.29D+00  1.41D+00  1.50D+00  1.64D+00  1.17D+00
                    CP:  1.71D+00  1.06D+00  1.27D+00
 CoulSu:  requested number of processors reduced to:  22 ShMem   1 Linda.
 CoulSu:  requested number of processors reduced to:  22 ShMem   1 Linda.
 CoulSu:  requested number of processors reduced to:  22 ShMem   1 Linda.
 CalDSu:  requested number of processors reduced to:  18 ShMem   1 Linda.
 E= -1031.86482662688     Delta-E=       -0.000000001482 Rises=F Damp=F
 DIIS: error= 6.64D-07 at cycle  14 NSaved=  14.
 NSaved=14 IEnMin=14 EnMin= -1031.86482662688     IErMin=14 ErrMin= 6.64D-07
 ErrMax= 6.64D-07  0.00D+00 EMaxC= 1.00D-01 BMatC= 1.01D-10 BMatP= 5.50D-10
 IDIUse=1 WtCom= 1.00D+00 WtEn= 0.00D+00
 Coeff-Com: -0.185D-04 0.395D-04 0.531D-04-0.391D-06-0.327D-03-0.902D-03
 Coeff-Com: -0.132D-02 0.730D-02 0.984D-02-0.486D-02-0.783D-01-0.650D-01
 Coeff-Com:  0.283D+00 0.851D+00
 Coeff:     -0.185D-04 0.395D-04 0.531D-04-0.391D-06-0.327D-03-0.902D-03
 Coeff:     -0.132D-02 0.730D-02 0.984D-02-0.486D-02-0.783D-01-0.650D-01
 Coeff:      0.283D+00 0.851D+00
 Gap=     0.250 Goal=   None    Shift=    0.000
 RMSDP=2.74D-07 MaxDP=2.27D-05 DE=-1.48D-09 OVMax= 1.09D-05

 Cycle  15  Pass 1  IDiag  1:
 RMSU=  1.05D-07    CP:  9.11D-01  1.68D+00  8.29D-01  1.09D+00  1.59D+00
                    CP:  1.29D+00  1.41D+00  1.50D+00  1.64D+00  1.17D+00
                    CP:  1.72D+00  1.08D+00  1.36D+00  1.10D+00
 CoulSu:  requested number of processors reduced to:  22 ShMem   1 Linda.
 CoulSu:  requested number of processors reduced to:  23 ShMem   1 Linda.
 CoulSu:  requested number of processors reduced to:  23 ShMem   1 Linda.
 CalDSu:  requested number of processors reduced to:  18 ShMem   1 Linda.
 E= -1031.86482662722     Delta-E=       -0.000000000337 Rises=F Damp=F
 DIIS: error= 3.08D-07 at cycle  15 NSaved=  15.
 NSaved=15 IEnMin=15 EnMin= -1031.86482662722     IErMin=15 ErrMin= 3.08D-07
 ErrMax= 3.08D-07  0.00D+00 EMaxC= 1.00D-01 BMatC= 1.76D-11 BMatP= 1.01D-10
 IDIUse=1 WtCom= 1.00D+00 WtEn= 0.00D+00
 Coeff-Com:  0.213D-05-0.483D-05 0.235D-05 0.251D-04 0.134D-03-0.271D-03
 Coeff-Com: -0.167D-02 0.111D-02 0.661D-02 0.902D-02-0.138D-01-0.655D-01
 Coeff-Com: -0.831D-01 0.235D+00 0.913D+00
 Coeff:      0.213D-05-0.483D-05 0.235D-05 0.251D-04 0.134D-03-0.271D-03
 Coeff:     -0.167D-02 0.111D-02 0.661D-02 0.902D-02-0.138D-01-0.655D-01
 Coeff:     -0.831D-01 0.235D+00 0.913D+00
 Gap=     0.250 Goal=   None    Shift=    0.000
 RMSDP=7.68D-08 MaxDP=4.65D-06 DE=-3.37D-10 OVMax= 4.35D-06

 Cycle  16  Pass 1  IDiag  1:
 RMSU=  4.93D-08    CP:  9.11D-01  1.68D+00  8.29D-01  1.09D+00  1.59D+00
                    CP:  1.29D+00  1.41D+00  1.50D+00  1.64D+00  1.17D+00
                    CP:  1.71D+00  1.07D+00  1.42D+00  1.20D+00  1.17D+00
 CoulSu:  requested number of processors reduced to:  22 ShMem   1 Linda.
 CoulSu:  requested number of processors reduced to:  23 ShMem   1 Linda.
 CoulSu:  requested number of processors reduced to:  23 ShMem   1 Linda.
 CalDSu:  requested number of processors reduced to:  18 ShMem   1 Linda.
 E= -1031.86482662725     Delta-E=       -0.000000000031 Rises=F Damp=F
 DIIS: error= 1.56D-07 at cycle  16 NSaved=  16.
 NSaved=16 IEnMin=16 EnMin= -1031.86482662725     IErMin=16 ErrMin= 1.56D-07
 ErrMax= 1.56D-07  0.00D+00 EMaxC= 1.00D-01 BMatC= 3.33D-12 BMatP= 1.76D-11
 IDIUse=1 WtCom= 1.00D+00 WtEn= 0.00D+00
 Coeff-Com:  0.198D-05-0.432D-05-0.417D-05 0.125D-04 0.793D-04 0.651D-04
 Coeff-Com: -0.303D-03-0.723D-03 0.553D-03 0.353D-02 0.923D-02-0.116D-01
 Coeff-Com: -0.703D-01-0.678D-01 0.272D+00 0.865D+00
 Coeff:      0.198D-05-0.432D-05-0.417D-05 0.125D-04 0.793D-04 0.651D-04
 Coeff:     -0.303D-03-0.723D-03 0.553D-03 0.353D-02 0.923D-02-0.116D-01
 Coeff:     -0.703D-01-0.678D-01 0.272D+00 0.865D+00
 Gap=     0.250 Goal=   None    Shift=    0.000
 RMSDP=4.53D-08 MaxDP=4.73D-06 DE=-3.09D-11 OVMax= 1.98D-06

 Cycle  17  Pass 1  IDiag  1:
 RMSU=  1.55D-08    CP:  9.11D-01  1.68D+00  8.29D-01  1.09D+00  1.59D+00
                    CP:  1.29D+00  1.41D+00  1.50D+00  1.63D+00  1.17D+00
                    CP:  1.71D+00  1.07D+00  1.41D+00  1.23D+00  1.29D+00
                    CP:  1.27D+00
 CoulSu:  requested number of processors reduced to:  23 ShMem   1 Linda.
 CoulSu:  requested number of processors reduced to:  23 ShMem   1 Linda.
 CoulSu:  requested number of processors reduced to:  23 ShMem   1 Linda.
 CalDSu:  requested number of processors reduced to:  18 ShMem   1 Linda.
 E= -1031.86482662740     Delta-E=       -0.000000000155 Rises=F Damp=F
 DIIS: error= 5.24D-08 at cycle  17 NSaved=  17.
 NSaved=17 IEnMin=17 EnMin= -1031.86482662740     IErMin=17 ErrMin= 5.24D-08
 ErrMax= 5.24D-08  0.00D+00 EMaxC= 1.00D-01 BMatC= 6.20D-13 BMatP= 3.33D-12
 IDIUse=1 WtCom= 1.00D+00 WtEn= 0.00D+00
 Coeff-Com:  0.142D-06-0.265D-06-0.224D-05-0.219D-05-0.572D-05 0.780D-04
 Coeff-Com:  0.199D-03-0.382D-03-0.123D-02-0.847D-03 0.453D-02 0.883D-02
 Coeff-Com:  0.173D-02-0.601D-01-0.125D+00 0.223D+00 0.950D+00
 Coeff:      0.142D-06-0.265D-06-0.224D-05-0.219D-05-0.572D-05 0.780D-04
 Coeff:      0.199D-03-0.382D-03-0.123D-02-0.847D-03 0.453D-02 0.883D-02
 Coeff:      0.173D-02-0.601D-01-0.125D+00 0.223D+00 0.950D+00
 Gap=     0.250 Goal=   None    Shift=    0.000
 RMSDP=2.61D-08 MaxDP=2.87D-06 DE=-1.55D-10 OVMax= 8.70D-07

 Cycle  18  Pass 1  IDiag  1:
 RMSU=  8.96D-09    CP:  9.11D-01  1.68D+00  8.29D-01  1.09D+00  1.59D+00
                    CP:  1.29D+00  1.41D+00  1.50D+00  1.64D+00  1.17D+00
                    CP:  1.71D+00  1.07D+00  1.41D+00  1.23D+00  1.35D+00
                    CP:  1.41D+00  1.16D+00
 CoulSu:  requested number of processors reduced to:  23 ShMem   1 Linda.
 CoulSu:  requested number of processors reduced to:  23 ShMem   1 Linda.
 CoulSu:  requested number of processors reduced to:  23 ShMem   1 Linda.
 CalDSu:  requested number of processors reduced to:  18 ShMem   1 Linda.
 E= -1031.86482662733     Delta-E=        0.000000000080 Rises=F Damp=F
 DIIS: error= 1.86D-08 at cycle  18 NSaved=  18.
 NSaved=18 IEnMin=17 EnMin= -1031.86482662740     IErMin=18 ErrMin= 1.86D-08
 ErrMax= 1.86D-08  0.00D+00 EMaxC= 1.00D-01 BMatC= 9.12D-14 BMatP= 6.20D-13
 IDIUse=1 WtCom= 1.00D+00 WtEn= 0.00D+00
 Coeff-Com: -0.191D-06 0.431D-06-0.295D-06-0.290D-05-0.111D-04 0.171D-04
 Coeff-Com:  0.102D-03 0.672D-05-0.446D-03-0.659D-03 0.916D-04 0.443D-02
 Coeff-Com:  0.117D-01-0.921D-02-0.821D-01-0.555D-01 0.262D+00 0.870D+00
 Coeff:     -0.191D-06 0.431D-06-0.295D-06-0.290D-05-0.111D-04 0.171D-04
 Coeff:      0.102D-03 0.672D-05-0.446D-03-0.659D-03 0.916D-04 0.443D-02
 Coeff:      0.117D-01-0.921D-02-0.821D-01-0.555D-01 0.262D+00 0.870D+00
 Gap=     0.250 Goal=   None    Shift=    0.000
 RMSDP=5.91D-09 MaxDP=4.72D-07 DE= 7.96D-11 OVMax= 3.15D-07

 SCF Done:  E(RCAM-B3LYP) =  -1031.86482663     A.U. after   18 cycles
            NFock= 18  Conv=0.59D-08     -V/T= 2.0040
 KE= 1.027785784826D+03 PE=-6.187397104254D+03 EE= 2.234987585521D+03
 Leave Link  502 at Mon Feb 17 09:46:01 2020, MaxMem=    33554432 cpu:      5048.9
 (Enter /opt/sys/apps/gaussian09/D.01/g09/l801.exe)
 DoSCS=F DFT=T ScalE2(SS,OS)=  1.000000  1.000000
 ExpMin= 3.60D-02 ExpMax= 8.59D+03 ExpMxC= 1.30D+03 IAcc=3 IRadAn=         5 AccDes= 0.00D+00
 HarFok:  IExCor=  205 AccDes= 0.00D+00 IRadAn=         5 IDoV=-2 UseB2=F ITyADJ=14
 ICtDFT= 12500011 ScaDFX=  1.000000  1.000000  1.000000  1.000000
 CalDSu:  requested number of processors reduced to:  22 ShMem   1 Linda.
 Largest valence mixing into a core orbital is  4.86D-05
 Largest core mixing into a valence orbital is  1.08D-05
 Range of M.O.s used for correlation:    25   646
 NBasis=   654 NAE=    84 NBE=    84 NFC=    24 NFV=     0
 NROrb=    622 NOA=    60 NOB=    60 NVA=   562 NVB=   562

 **** Warning!!: The largest alpha MO coefficient is  0.14753031D+03

 Leave Link  801 at Mon Feb 17 09:46:02 2020, MaxMem=    33554432 cpu:         5.4
 (Enter /opt/sys/apps/gaussian09/D.01/g09/l914.exe)
 RHF ground state
 MDV=    33554432 DFT=T DoStab=F Mixed=T DoRPA=T DoScal=F NonHer=T
 Would need an additional        139465000000 words for in-memory AO integral storage.
 Making orbital integer symmetry assigments:
    40 initial guesses have been made.
 Convergence on wavefunction:    0.000001000000000
 Davidson Disk Diagonalization:  ConvIn= 1.00D-06 SkipCon=T Conv= 1.00D-06.
 Max sub-space:   200 roots to seek:    40 dimension of matrix:        67440
 Iteration     1 Dimension    40 NMult     0 NNew     40
 Estimated number of processors is:   20
 CISAX will form     1 AO SS matrices at one time.
 NMat=     1 NSing=     1 JSym2X= 0.
 FoFJK:  IHMeth= 1 ICntrl=       0 DoSepK=T KAlg= 0 I1Cent=   0 FoldK=F
 IRaf=         1 NMat=   2 IRICut=       1 DoRegI=T DoRafI=F ISym2E= 0.
 FoFCou: FMM=F IPFlag=           0 FMFlag=      100000 FMFlg1=           0
         NFxFlg=           0 DoJE=T BraDBF=F KetDBF=F FulRan=T
         wScrn=  0.000000 ICntrl=     500 IOpCl=  0 I1Cent=           0 NGrid=           0
         NMat0=    1 NMatS0=      1 NMatT0=    0 NMatD0=    1 NMtDS0=    0 NMtDT0=    0
 Symmetry not used in FoFCou.
 CoulSu:  requested number of processors reduced to:  21 ShMem   1 Linda.
 CoulSu:  requested number of processors reduced to:  21 ShMem   1 Linda.
 CoulSu:  requested number of processors reduced to:  18 ShMem   1 Linda.
 CalDSu:  requested number of processors reduced to:  18 ShMem   1 Linda.
 NMat=     1 NSing=     1 JSym2X= 0.
 CoulSu:  requested number of processors reduced to:  20 ShMem   1 Linda.
 CoulSu:  requested number of processors reduced to:  20 ShMem   1 Linda.
 CoulSu:  requested number of processors reduced to:  18 ShMem   1 Linda.
 CalDSu:  requested number of processors reduced to:  18 ShMem   1 Linda.
 NMat=     1 NSing=     1 JSym2X= 0.
 CoulSu:  requested number of processors reduced to:  21 ShMem   1 Linda.
 CoulSu:  requested number of processors reduced to:  21 ShMem   1 Linda.
 CoulSu:  requested number of processors reduced to:  18 ShMem   1 Linda.
 CalDSu:  requested number of processors reduced to:  18 ShMem   1 Linda.
 NMat=     1 NSing=     1 JSym2X= 0.
 CoulSu:  requested number of processors reduced to:  20 ShMem   1 Linda.
 CoulSu:  requested number of processors reduced to:  20 ShMem   1 Linda.
 CoulSu:  requested number of processors reduced to:  18 ShMem   1 Linda.
 CalDSu:  requested number of processors reduced to:  18 ShMem   1 Linda.
 NMat=     1 NSing=     1 JSym2X= 0.
 CoulSu:  requested number of processors reduced to:  20 ShMem   1 Linda.
 CoulSu:  requested number of processors reduced to:  20 ShMem   1 Linda.
 CoulSu:  requested number of processors reduced to:  18 ShMem   1 Linda.
 CalDSu:  requested number of processors reduced to:  18 ShMem   1 Linda.
 NMat=     1 NSing=     1 JSym2X= 0.
 CoulSu:  requested number of processors reduced to:  20 ShMem   1 Linda.
 CoulSu:  requested number of processors reduced to:  20 ShMem   1 Linda.
 CoulSu:  requested number of processors reduced to:  18 ShMem   1 Linda.
 CalDSu:  requested number of processors reduced to:  18 ShMem   1 Linda.
 NMat=     1 NSing=     1 JSym2X= 0.
 CoulSu:  requested number of processors reduced to:  20 ShMem   1 Linda.
 CoulSu:  requested number of processors reduced to:  20 ShMem   1 Linda.
 CoulSu:  requested number of processors reduced to:  18 ShMem   1 Linda.
 CalDSu:  requested number of processors reduced to:  18 ShMem   1 Linda.
 NMat=     1 NSing=     1 JSym2X= 0.
 CoulSu:  requested number of processors reduced to:  20 ShMem   1 Linda.
 CoulSu:  requested number of processors reduced to:  20 ShMem   1 Linda.
 CoulSu:  requested number of processors reduced to:  18 ShMem   1 Linda.
 CalDSu:  requested number of processors reduced to:  18 ShMem   1 Linda.
 NMat=     1 NSing=     1 JSym2X= 0.
 CoulSu:  requested number of processors reduced to:  21 ShMem   1 Linda.
 CoulSu:  requested number of processors reduced to:  21 ShMem   1 Linda.
 CoulSu:  requested number of processors reduced to:  18 ShMem   1 Linda.
 CalDSu:  requested number of processors reduced to:  18 ShMem   1 Linda.
 NMat=     1 NSing=     1 JSym2X= 0.
 CoulSu:  requested number of processors reduced to:  21 ShMem   1 Linda.
 CoulSu:  requested number of processors reduced to:  21 ShMem   1 Linda.
 CoulSu:  requested number of processors reduced to:  18 ShMem   1 Linda.
 CalDSu:  requested number of processors reduced to:  18 ShMem   1 Linda.
 NMat=     1 NSing=     1 JSym2X= 0.
 CoulSu:  requested number of processors reduced to:  20 ShMem   1 Linda.
 CoulSu:  requested number of processors reduced to:  20 ShMem   1 Linda.
 CoulSu:  requested number of processors reduced to:  18 ShMem   1 Linda.
 CalDSu:  requested number of processors reduced to:  18 ShMem   1 Linda.
 NMat=     1 NSing=     1 JSym2X= 0.
 CoulSu:  requested number of processors reduced to:  20 ShMem   1 Linda.
 CoulSu:  requested number of processors reduced to:  21 ShMem   1 Linda.
 CoulSu:  requested number of processors reduced to:  18 ShMem   1 Linda.
 CalDSu:  requested number of processors reduced to:  18 ShMem   1 Linda.
 NMat=     1 NSing=     1 JSym2X= 0.
 CoulSu:  requested number of processors reduced to:  20 ShMem   1 Linda.
 CoulSu:  requested number of processors reduced to:  20 ShMem   1 Linda.
 CoulSu:  requested number of processors reduced to:  18 ShMem   1 Linda.
 CalDSu:  requested number of processors reduced to:  18 ShMem   1 Linda.
 NMat=     1 NSing=     1 JSym2X= 0.
 CoulSu:  requested number of processors reduced to:  20 ShMem   1 Linda.
 CoulSu:  requested number of processors reduced to:  20 ShMem   1 Linda.
 CoulSu:  requested number of processors reduced to:  18 ShMem   1 Linda.
 CalDSu:  requested number of processors reduced to:  18 ShMem   1 Linda.
 NMat=     1 NSing=     1 JSym2X= 0.
 CoulSu:  requested number of processors reduced to:  20 ShMem   1 Linda.
 CoulSu:  requested number of processors reduced to:  20 ShMem   1 Linda.
 CoulSu:  requested number of processors reduced to:  18 ShMem   1 Linda.
 CalDSu:  requested number of processors reduced to:  18 ShMem   1 Linda.
 NMat=     1 NSing=     1 JSym2X= 0.
 CoulSu:  requested number of processors reduced to:  20 ShMem   1 Linda.
 CoulSu:  requested number of processors reduced to:  20 ShMem   1 Linda.
 CoulSu:  requested number of processors reduced to:  18 ShMem   1 Linda.
 CalDSu:  requested number of processors reduced to:  18 ShMem   1 Linda.
 NMat=     1 NSing=     1 JSym2X= 0.
 CoulSu:  requested number of processors reduced to:  20 ShMem   1 Linda.
 CoulSu:  requested number of processors reduced to:  20 ShMem   1 Linda.
 CoulSu:  requested number of processors reduced to:  18 ShMem   1 Linda.
 CalDSu:  requested number of processors reduced to:  18 ShMem   1 Linda.
 NMat=     1 NSing=     1 JSym2X= 0.
 CoulSu:  requested number of processors reduced to:  20 ShMem   1 Linda.
 CoulSu:  requested number of processors reduced to:  20 ShMem   1 Linda.
 CoulSu:  requested number of processors reduced to:  18 ShMem   1 Linda.
 CalDSu:  requested number of processors reduced to:  18 ShMem   1 Linda.
 NMat=     1 NSing=     1 JSym2X= 0.
 CoulSu:  requested number of processors reduced to:  21 ShMem   1 Linda.
 CoulSu:  requested number of processors reduced to:  21 ShMem   1 Linda.
 CoulSu:  requested number of processors reduced to:  18 ShMem   1 Linda.
 CalDSu:  requested number of processors reduced to:  18 ShMem   1 Linda.
 NMat=     1 NSing=     1 JSym2X= 0.
 CoulSu:  requested number of processors reduced to:  20 ShMem   1 Linda.
 CoulSu:  requested number of processors reduced to:  20 ShMem   1 Linda.
 CoulSu:  requested number of processors reduced to:  18 ShMem   1 Linda.
 CalDSu:  requested number of processors reduced to:  18 ShMem   1 Linda.
 NMat=     1 NSing=     1 JSym2X= 0.
 CoulSu:  requested number of processors reduced to:  20 ShMem   1 Linda.
 CoulSu:  requested number of processors reduced to:  20 ShMem   1 Linda.
 CoulSu:  requested number of processors reduced to:  18 ShMem   1 Linda.
 CalDSu:  requested number of processors reduced to:  18 ShMem   1 Linda.
 NMat=     1 NSing=     1 JSym2X= 0.
 CoulSu:  requested number of processors reduced to:  20 ShMem   1 Linda.
 CoulSu:  requested number of processors reduced to:  20 ShMem   1 Linda.
 CoulSu:  requested number of processors reduced to:  18 ShMem   1 Linda.
 CalDSu:  requested number of processors reduced to:  18 ShMem   1 Linda.
 NMat=     1 NSing=     1 JSym2X= 0.
 CoulSu:  requested number of processors reduced to:  20 ShMem   1 Linda.
 CoulSu:  requested number of processors reduced to:  20 ShMem   1 Linda.
 CoulSu:  requested number of processors reduced to:  18 ShMem   1 Linda.
 CalDSu:  requested number of processors reduced to:  18 ShMem   1 Linda.
 NMat=     1 NSing=     1 JSym2X= 0.
 CoulSu:  requested number of processors reduced to:  20 ShMem   1 Linda.
 CoulSu:  requested number of processors reduced to:  20 ShMem   1 Linda.
 CoulSu:  requested number of processors reduced to:  18 ShMem   1 Linda.
 CalDSu:  requested number of processors reduced to:  18 ShMem   1 Linda.
 NMat=     1 NSing=     1 JSym2X= 0.
 CoulSu:  requested number of processors reduced to:  20 ShMem   1 Linda.
 CoulSu:  requested number of processors reduced to:  21 ShMem   1 Linda.
 CoulSu:  requested number of processors reduced to:  18 ShMem   1 Linda.
 CalDSu:  requested number of processors reduced to:  18 ShMem   1 Linda.
 NMat=     1 NSing=     1 JSym2X= 0.
 CoulSu:  requested number of processors reduced to:  20 ShMem   1 Linda.
 CoulSu:  requested number of processors reduced to:  20 ShMem   1 Linda.
 CoulSu:  requested number of processors reduced to:  18 ShMem   1 Linda.
 CalDSu:  requested number of processors reduced to:  18 ShMem   1 Linda.
 NMat=     1 NSing=     1 JSym2X= 0.
 CoulSu:  requested number of processors reduced to:  20 ShMem   1 Linda.
 CoulSu:  requested number of processors reduced to:  20 ShMem   1 Linda.
 CoulSu:  requested number of processors reduced to:  18 ShMem   1 Linda.
 CalDSu:  requested number of processors reduced to:  18 ShMem   1 Linda.
 NMat=     1 NSing=     1 JSym2X= 0.
 CoulSu:  requested number of processors reduced to:  20 ShMem   1 Linda.
 CoulSu:  requested number of processors reduced to:  20 ShMem   1 Linda.
 CoulSu:  requested number of processors reduced to:  18 ShMem   1 Linda.
 CalDSu:  requested number of processors reduced to:  18 ShMem   1 Linda.
 NMat=     1 NSing=     1 JSym2X= 0.
 CoulSu:  requested number of processors reduced to:  20 ShMem   1 Linda.
 CoulSu:  requested number of processors reduced to:  20 ShMem   1 Linda.
 CoulSu:  requested number of processors reduced to:  18 ShMem   1 Linda.
 CalDSu:  requested number of processors reduced to:  18 ShMem   1 Linda.
 NMat=     1 NSing=     1 JSym2X= 0.
 CoulSu:  requested number of processors reduced to:  20 ShMem   1 Linda.
 CoulSu:  requested number of processors reduced to:  20 ShMem   1 Linda.
 CoulSu:  requested number of processors reduced to:  18 ShMem   1 Linda.
 CalDSu:  requested number of processors reduced to:  18 ShMem   1 Linda.
 NMat=     1 NSing=     1 JSym2X= 0.
 CoulSu:  requested number of processors reduced to:  20 ShMem   1 Linda.
 CoulSu:  requested number of processors reduced to:  20 ShMem   1 Linda.
 CoulSu:  requested number of processors reduced to:  18 ShMem   1 Linda.
 CalDSu:  requested number of processors reduced to:  18 ShMem   1 Linda.
 NMat=     1 NSing=     1 JSym2X= 0.
 CoulSu:  requested number of processors reduced to:  20 ShMem   1 Linda.
 CoulSu:  requested number of processors reduced to:  20 ShMem   1 Linda.
 CoulSu:  requested number of processors reduced to:  18 ShMem   1 Linda.
 CalDSu:  requested number of processors reduced to:  18 ShMem   1 Linda.
 NMat=     1 NSing=     1 JSym2X= 0.
 CoulSu:  requested number of processors reduced to:  20 ShMem   1 Linda.
 CoulSu:  requested number of processors reduced to:  20 ShMem   1 Linda.
 CoulSu:  requested number of processors reduced to:  18 ShMem   1 Linda.
 CalDSu:  requested number of processors reduced to:  18 ShMem   1 Linda.
 NMat=     1 NSing=     1 JSym2X= 0.
 CoulSu:  requested number of processors reduced to:  20 ShMem   1 Linda.
 CoulSu:  requested number of processors reduced to:  20 ShMem   1 Linda.
 CoulSu:  requested number of processors reduced to:  18 ShMem   1 Linda.
 CalDSu:  requested number of processors reduced to:  18 ShMem   1 Linda.
 NMat=     1 NSing=     1 JSym2X= 0.
 CoulSu:  requested number of processors reduced to:  20 ShMem   1 Linda.
 CoulSu:  requested number of processors reduced to:  20 ShMem   1 Linda.
 CoulSu:  requested number of processors reduced to:  18 ShMem   1 Linda.
 CalDSu:  requested number of processors reduced to:  18 ShMem   1 Linda.
 NMat=     1 NSing=     1 JSym2X= 0.
 CoulSu:  requested number of processors reduced to:  20 ShMem   1 Linda.
 CoulSu:  requested number of processors reduced to:  20 ShMem   1 Linda.
 CoulSu:  requested number of processors reduced to:  18 ShMem   1 Linda.
 CalDSu:  requested number of processors reduced to:  18 ShMem   1 Linda.
 NMat=     1 NSing=     1 JSym2X= 0.
 CoulSu:  requested number of processors reduced to:  20 ShMem   1 Linda.
 CoulSu:  requested number of processors reduced to:  20 ShMem   1 Linda.
 CoulSu:  requested number of processors reduced to:  18 ShMem   1 Linda.
 CalDSu:  requested number of processors reduced to:  18 ShMem   1 Linda.
 NMat=     1 NSing=     1 JSym2X= 0.
 CoulSu:  requested number of processors reduced to:  20 ShMem   1 Linda.
 CoulSu:  requested number of processors reduced to:  20 ShMem   1 Linda.
 CoulSu:  requested number of processors reduced to:  18 ShMem   1 Linda.
 CalDSu:  requested number of processors reduced to:  18 ShMem   1 Linda.
 NMat=     1 NSing=     1 JSym2X= 0.
 CoulSu:  requested number of processors reduced to:  20 ShMem   1 Linda.
 CoulSu:  requested number of processors reduced to:  20 ShMem   1 Linda.
 CoulSu:  requested number of processors reduced to:  18 ShMem   1 Linda.
 CalDSu:  requested number of processors reduced to:  18 ShMem   1 Linda.
 NMat=     1 NSing=     1 JSym2X= 0.
 CoulSu:  requested number of processors reduced to:  20 ShMem   1 Linda.
 CoulSu:  requested number of processors reduced to:  20 ShMem   1 Linda.
 CoulSu:  requested number of processors reduced to:  18 ShMem   1 Linda.
 CalDSu:  requested number of processors reduced to:  18 ShMem   1 Linda.
 New state      2 was old state      3
 New state      3 was old state     12
 New state      4 was old state     25
 New state      5 was old state     19
 New state      6 was old state      9
 New state      7 was old state      2
 New state      8 was old state      5
 New state      9 was old state      4
 New state     10 was old state      7
 Excitation Energies [eV] at current iteration:
 Root      1 :     3.826073464163571
 Root      2 :     4.692848957142632
 Root      3 :     4.751382309573318
 Root      4 :     4.976468360642979
 Root      5 :     5.359610125114941
 Root      6 :     5.368853063003575
 Root      7 :     5.586731464414814
 Root      8 :     5.597405586103303
 Root      9 :     6.036805921419506
 Root     10 :     6.049628365315052
 Root     11 :     6.134006237609507
 Root     12 :     6.235155060042630
 Root     13 :     6.347420324114972
 Root     14 :     6.541239323501456
 Root     15 :     6.583117326922284
 Root     16 :     6.622552811281706
 Root     17 :     6.741149531025282
 Root     18 :     6.917576787276930
 Root     19 :     7.000751267230484
 Root     20 :     7.084711054347002
 Root     21 :     7.163768825122333
 Root     22 :     7.220692013632513
 Root     23 :     7.277511702790482
 Root     24 :     7.304279750947372
 Root     25 :     7.448971158645175
 Root     26 :     7.604932198277874
 Root     27 :     7.690975932086475
 Root     28 :     7.769722022248716
 Root     29 :     7.791123481265852
 Root     30 :     7.929134990447858
 Root     31 :     7.942204139899933
 Root     32 :     7.981413259027085
 Root     33 :     8.016589537809937
 Root     34 :     8.226266622982994
 Root     35 :     8.343770365700296
 Root     36 :     8.408753031783123
 Root     37 :     8.567021695847924
 Root     38 :     8.668088798640294
 Root     39 :     8.988081068985412
 Root     40 :     9.219724791866708
 Iteration     2 Dimension    60 NMult    40 NNew     20
 Estimated number of processors is:   20
 CISAX will form     1 AO SS matrices at one time.
 NMat=     1 NSing=     1 JSym2X= 0.
 CoulSu:  requested number of processors reduced to:  20 ShMem   1 Linda.
 CoulSu:  requested number of processors reduced to:  20 ShMem   1 Linda.
 CoulSu:  requested number of processors reduced to:  18 ShMem   1 Linda.
 CalDSu:  requested number of processors reduced to:  18 ShMem   1 Linda.
 NMat=     1 NSing=     1 JSym2X= 0.
 CoulSu:  requested number of processors reduced to:  20 ShMem   1 Linda.
 CoulSu:  requested number of processors reduced to:  20 ShMem   1 Linda.
 CoulSu:  requested number of processors reduced to:  18 ShMem   1 Linda.
 CalDSu:  requested number of processors reduced to:  18 ShMem   1 Linda.
 NMat=     1 NSing=     1 JSym2X= 0.
 CoulSu:  requested number of processors reduced to:  20 ShMem   1 Linda.
 CoulSu:  requested number of processors reduced to:  20 ShMem   1 Linda.
 CoulSu:  requested number of processors reduced to:  18 ShMem   1 Linda.
 CalDSu:  requested number of processors reduced to:  18 ShMem   1 Linda.
 NMat=     1 NSing=     1 JSym2X= 0.
 CoulSu:  requested number of processors reduced to:  20 ShMem   1 Linda.
 CoulSu:  requested number of processors reduced to:  20 ShMem   1 Linda.
 CoulSu:  requested number of processors reduced to:  18 ShMem   1 Linda.
 CalDSu:  requested number of processors reduced to:  18 ShMem   1 Linda.
 NMat=     1 NSing=     1 JSym2X= 0.
 CoulSu:  requested number of processors reduced to:  20 ShMem   1 Linda.
 CoulSu:  requested number of processors reduced to:  20 ShMem   1 Linda.
 CoulSu:  requested number of processors reduced to:  18 ShMem   1 Linda.
 CalDSu:  requested number of processors reduced to:  18 ShMem   1 Linda.
 NMat=     1 NSing=     1 JSym2X= 0.
 CoulSu:  requested number of processors reduced to:  20 ShMem   1 Linda.
 CoulSu:  requested number of processors reduced to:  20 ShMem   1 Linda.
 CoulSu:  requested number of processors reduced to:  18 ShMem   1 Linda.
 CalDSu:  requested number of processors reduced to:  18 ShMem   1 Linda.
 NMat=     1 NSing=     1 JSym2X= 0.
 CoulSu:  requested number of processors reduced to:  20 ShMem   1 Linda.
 CoulSu:  requested number of processors reduced to:  20 ShMem   1 Linda.
 CoulSu:  requested number of processors reduced to:  18 ShMem   1 Linda.
 CalDSu:  requested number of processors reduced to:  18 ShMem   1 Linda.
 NMat=     1 NSing=     1 JSym2X= 0.
 CoulSu:  requested number of processors reduced to:  20 ShMem   1 Linda.
 CoulSu:  requested number of processors reduced to:  20 ShMem   1 Linda.
 CoulSu:  requested number of processors reduced to:  18 ShMem   1 Linda.
 CalDSu:  requested number of processors reduced to:  18 ShMem   1 Linda.
 NMat=     1 NSing=     1 JSym2X= 0.
 CoulSu:  requested number of processors reduced to:  20 ShMem   1 Linda.
 CoulSu:  requested number of processors reduced to:  20 ShMem   1 Linda.
 CoulSu:  requested number of processors reduced to:  18 ShMem   1 Linda.
 CalDSu:  requested number of processors reduced to:  18 ShMem   1 Linda.
 NMat=     1 NSing=     1 JSym2X= 0.
 CoulSu:  requested number of processors reduced to:  20 ShMem   1 Linda.
 CoulSu:  requested number of processors reduced to:  20 ShMem   1 Linda.
 CoulSu:  requested number of processors reduced to:  18 ShMem   1 Linda.
 CalDSu:  requested number of processors reduced to:  18 ShMem   1 Linda.
 NMat=     1 NSing=     1 JSym2X= 0.
 CoulSu:  requested number of processors reduced to:  20 ShMem   1 Linda.
 CoulSu:  requested number of processors reduced to:  20 ShMem   1 Linda.
 CoulSu:  requested number of processors reduced to:  18 ShMem   1 Linda.
 CalDSu:  requested number of processors reduced to:  18 ShMem   1 Linda.
 NMat=     1 NSing=     1 JSym2X= 0.
 CoulSu:  requested number of processors reduced to:  20 ShMem   1 Linda.
 CoulSu:  requested number of processors reduced to:  20 ShMem   1 Linda.
 CoulSu:  requested number of processors reduced to:  18 ShMem   1 Linda.
 CalDSu:  requested number of processors reduced to:  18 ShMem   1 Linda.
 NMat=     1 NSing=     1 JSym2X= 0.
 CoulSu:  requested number of processors reduced to:  20 ShMem   1 Linda.
 CoulSu:  requested number of processors reduced to:  20 ShMem   1 Linda.
 CoulSu:  requested number of processors reduced to:  18 ShMem   1 Linda.
 CalDSu:  requested number of processors reduced to:  18 ShMem   1 Linda.
 NMat=     1 NSing=     1 JSym2X= 0.
 CoulSu:  requested number of processors reduced to:  20 ShMem   1 Linda.
 CoulSu:  requested number of processors reduced to:  20 ShMem   1 Linda.
 CoulSu:  requested number of processors reduced to:  18 ShMem   1 Linda.
 CalDSu:  requested number of processors reduced to:  18 ShMem   1 Linda.
 NMat=     1 NSing=     1 JSym2X= 0.
 CoulSu:  requested number of processors reduced to:  20 ShMem   1 Linda.
 CoulSu:  requested number of processors reduced to:  20 ShMem   1 Linda.
 CoulSu:  requested number of processors reduced to:  18 ShMem   1 Linda.
 CalDSu:  requested number of processors reduced to:  18 ShMem   1 Linda.
 NMat=     1 NSing=     1 JSym2X= 0.
 CoulSu:  requested number of processors reduced to:  20 ShMem   1 Linda.
 CoulSu:  requested number of processors reduced to:  20 ShMem   1 Linda.
 CoulSu:  requested number of processors reduced to:  18 ShMem   1 Linda.
 CalDSu:  requested number of processors reduced to:  18 ShMem   1 Linda.
 NMat=     1 NSing=     1 JSym2X= 0.
 CoulSu:  requested number of processors reduced to:  20 ShMem   1 Linda.
 CoulSu:  requested number of processors reduced to:  20 ShMem   1 Linda.
 CoulSu:  requested number of processors reduced to:  18 ShMem   1 Linda.
 CalDSu:  requested number of processors reduced to:  18 ShMem   1 Linda.
 NMat=     1 NSing=     1 JSym2X= 0.
 CoulSu:  requested number of processors reduced to:  20 ShMem   1 Linda.
 CoulSu:  requested number of processors reduced to:  20 ShMem   1 Linda.
 CoulSu:  requested number of processors reduced to:  18 ShMem   1 Linda.
 CalDSu:  requested number of processors reduced to:  18 ShMem   1 Linda.
 NMat=     1 NSing=     1 JSym2X= 0.
 CoulSu:  requested number of processors reduced to:  20 ShMem   1 Linda.
 CoulSu:  requested number of processors reduced to:  20 ShMem   1 Linda.
 CoulSu:  requested number of processors reduced to:  18 ShMem   1 Linda.
 CalDSu:  requested number of processors reduced to:  18 ShMem   1 Linda.
 NMat=     1 NSing=     1 JSym2X= 0.
 CoulSu:  requested number of processors reduced to:  20 ShMem   1 Linda.
 CoulSu:  requested number of processors reduced to:  20 ShMem   1 Linda.
 CoulSu:  requested number of processors reduced to:  18 ShMem   1 Linda.
 CalDSu:  requested number of processors reduced to:  18 ShMem   1 Linda.
 Root      1 not converged, maximum delta is    0.051367203511042
 New state      2 was old state      3
 Root      2 not converged, maximum delta is    0.343986264485649
 New state      3 was old state      2
 Root      3 not converged, maximum delta is    0.047526589894189
 Root      4 not converged, maximum delta is    0.377008242140656
 Root      5 not converged, maximum delta is    0.176170609519433
 Root      6 not converged, maximum delta is    0.174713606143128
 New state      7 was old state      8
 Root      7 not converged, maximum delta is    0.195947330535974
 New state      8 was old state      7
 Root      8 not converged, maximum delta is    0.139804080854668
 Root      9 not converged, maximum delta is    0.213285160489244
 Root     10 not converged, maximum delta is    0.282188054325110
 Excitation Energies [eV] at current iteration:
 Root      1 :     3.220293975417488   Change is   -0.605779488746083
 Root      2 :     3.934478995455611   Change is   -0.816903314117706
 Root      3 :     4.201851476385651   Change is   -0.490997480756981
 Root      4 :     4.327474327295180   Change is   -0.648994033347799
 Root      5 :     4.755767328359371   Change is   -0.603842796755570
 Root      6 :     4.904485474209179   Change is   -0.464367588794397
 Root      7 :     5.106047673693952   Change is   -0.491357912409351
 Root      8 :     5.333809093681538   Change is   -0.252922370733276
 Root      9 :     5.396889393828329   Change is   -0.639916527591178
 Root     10 :     5.775017438920867   Change is   -0.274610926394185
 Iteration     3 Dimension    80 NMult    60 NNew     20
 Estimated number of processors is:   20
 CISAX will form     1 AO SS matrices at one time.
 NMat=     1 NSing=     1 JSym2X= 0.
 CoulSu:  requested number of processors reduced to:  20 ShMem   1 Linda.
 CoulSu:  requested number of processors reduced to:  20 ShMem   1 Linda.
 CoulSu:  requested number of processors reduced to:  18 ShMem   1 Linda.
 CalDSu:  requested number of processors reduced to:  18 ShMem   1 Linda.
 NMat=     1 NSing=     1 JSym2X= 0.
 CoulSu:  requested number of processors reduced to:  20 ShMem   1 Linda.
 CoulSu:  requested number of processors reduced to:  20 ShMem   1 Linda.
 CoulSu:  requested number of processors reduced to:  18 ShMem   1 Linda.
 CalDSu:  requested number of processors reduced to:  18 ShMem   1 Linda.
 NMat=     1 NSing=     1 JSym2X= 0.
 CoulSu:  requested number of processors reduced to:  20 ShMem   1 Linda.
 CoulSu:  requested number of processors reduced to:  20 ShMem   1 Linda.
 CoulSu:  requested number of processors reduced to:  18 ShMem   1 Linda.
 CalDSu:  requested number of processors reduced to:  18 ShMem   1 Linda.
 NMat=     1 NSing=     1 JSym2X= 0.
 CoulSu:  requested number of processors reduced to:  20 ShMem   1 Linda.
[...]
    34  O   -0.000004   0.000008   0.000163  -0.020277  -0.002500   0.000174
    35  C    0.009184  -0.015348  -0.003032  -0.015516   0.078189   0.188516
    36  C   -0.000719   0.000655  -0.002958   0.000823  -0.034102  -0.036660
    37  C    0.000149  -0.001655  -0.000862   0.002977   0.000267  -0.023672
    38  H   -0.000016   0.000315   0.000035  -0.000081  -0.000063   0.001534
    39  C    0.002836  -0.008261   0.000875  -0.003918   0.017894   0.157990
    40  H    0.000002  -0.000040  -0.000010  -0.000038   0.000044  -0.000035
    41  H    0.000325  -0.001991  -0.000353   0.000099  -0.001158  -0.011977
    42  H    0.000004  -0.000014   0.000035   0.000169  -0.000081   0.000549
              19         20         21         22         23         24
     1  C   -0.189123  -0.061847   0.005803  -0.020570  -0.113950  -0.021110
     2  C    0.088354   0.018167  -0.006895  -0.000723  -0.367077  -0.041638
     3  C    0.014937   0.125473   0.030202   0.008864  -0.149883   0.032244
     4  C   -0.029602   0.011095  -0.020424  -0.005785  -0.164872  -0.032590
     5  C   -0.078323  -0.396425  -0.069666  -0.025106  -0.024658   0.006414
     6  C   -0.078871   0.070202   0.060459   0.006669   0.443346   0.044290
     7  C    0.018859   0.003318   0.009062  -0.000756  -0.019859   0.002679
     8  C   -0.006332   0.054763   0.019036   0.002233  -0.027103   0.001573
     9  C   -0.000072   0.000253   0.001139  -0.000094  -0.000500  -0.000103
    10  C    0.000970   0.000581   0.000531   0.000015  -0.000585   0.000282
    11  C   -0.000150   0.002204   0.000199   0.000123  -0.000204   0.000042
    12  C    0.003801  -0.005895  -0.005390   0.000018   0.001069   0.000553
    13  H   -0.016650   0.004407   0.001912  -0.002842   0.007930  -0.045242
    14  H   -0.005219  -0.004028  -0.000995   0.000065   0.006556   0.004249
    15  H   -0.013629  -0.005056  -0.054954   0.005866  -0.005178  -0.000034
    16  H   -0.000056  -0.000075   0.000332  -0.000026  -0.000035   0.000001
    17  O   -0.009048   0.005476   0.003590   0.000264  -0.001174   0.000070
    18  N    0.002114  -0.000678  -0.000535  -0.000034   0.000602   0.000001
    19  N    7.127072   0.067788  -0.069668  -0.079347   0.116421  -0.045597
    20  C    0.067788   6.045443   0.524813   0.495345  -0.489380  -0.064631
    21  H   -0.069668   0.524813   0.590094  -0.041896  -0.066380  -0.009649
    22  H   -0.079347   0.495345  -0.041896   0.538130   0.026551   0.005761
    23  C    0.116421  -0.489380  -0.066380   0.026551   6.218166   0.500519
    24  H   -0.045597  -0.064631  -0.009649   0.005761   0.500519   0.593011
    25  H   -0.088454   0.027625   0.006464  -0.015215   0.498532  -0.043922
    26  C    0.012761   0.133053   0.004927   0.004249  -0.206758  -0.055763
    27  H   -0.013542   0.010524   0.002743   0.001556   0.042755  -0.013227
    28  H    0.023322   0.004616   0.000263  -0.000522  -0.084967  -0.000361
    29  H    0.001222  -0.045150  -0.010002  -0.003348   0.049466   0.013876
    30  C    0.022340  -0.223306  -0.072398  -0.084072   0.169802   0.013046
    31  H   -0.007847   0.072597   0.015592  -0.002563  -0.051696  -0.010337
    32  H   -0.016632   0.040900  -0.010676   0.012523   0.006034   0.003128
    33  H    0.029178  -0.094033  -0.006652  -0.006377   0.008151   0.000336
    34  O    0.000000   0.000001  -0.000005   0.000000   0.000000   0.000000
    35  C   -0.000454   0.001570   0.000223   0.000057   0.000723  -0.000486
    36  C    0.000068   0.000069   0.000092   0.000000   0.000001   0.000024
    37  C    0.000006   0.000037   0.000030   0.000001  -0.000011  -0.000005
    38  H   -0.000001  -0.000002  -0.000002   0.000000   0.000004   0.000001
    39  C   -0.000074   0.000044  -0.000052   0.000003   0.000174  -0.000083
    40  H    0.000000   0.000000   0.000000   0.000000   0.000000   0.000000
    41  H    0.000048   0.000025   0.000049  -0.000003  -0.000234  -0.000049
    42  H    0.000000  -0.000004  -0.000001   0.000000   0.000000   0.000000
              25         26         27         28         29         30
     1  C   -0.001337   0.119330   0.010202   0.008434  -0.006104  -0.059569
     2  C   -0.025445   0.138909  -0.022274   0.010051   0.000828  -0.024245
     3  C   -0.015189   0.051054   0.004494   0.003847  -0.003205  -0.002266
     4  C    0.010034  -0.059224  -0.005267  -0.003108  -0.004006  -0.027069
     5  C   -0.013966   0.011648  -0.029416   0.001484   0.021065   0.071624
     6  C    0.029485  -0.286053   0.001098   0.000873  -0.037643  -0.013403
     7  C    0.000711  -0.006839   0.000737  -0.000309   0.000210  -0.000866
     8  C   -0.000455  -0.003157   0.002948  -0.000291  -0.000787  -0.007216
     9  C    0.000067  -0.000288   0.000073  -0.000027   0.000005   0.000240
    10  C   -0.000001  -0.000128   0.000119  -0.000007  -0.000003  -0.000075
    11  C   -0.000042   0.000112   0.000011   0.000005  -0.000010  -0.000168
    12  C   -0.000111   0.000251  -0.000056   0.000031   0.000049   0.000103
    13  H    0.009866  -0.004662  -0.000910  -0.003140  -0.003240  -0.003724
    14  H   -0.000145  -0.002336   0.000055   0.000159   0.000404  -0.000049
    15  H   -0.002712   0.004549  -0.002406   0.000205   0.001724  -0.025428
    16  H    0.000012  -0.000044   0.000006  -0.000002   0.000001   0.000029
    17  O    0.000052  -0.000593   0.000042  -0.000024  -0.000024  -0.000296
    18  N    0.000038   0.000027   0.000069   0.000002  -0.000012   0.000035
    19  N   -0.088454   0.012761  -0.013542   0.023322   0.001222   0.022340
    20  C    0.027625   0.133053   0.010524   0.004616  -0.045150  -0.223306
    21  H    0.006464   0.004927   0.002743   0.000263  -0.010002  -0.072398
    22  H   -0.015215   0.004249   0.001556  -0.000522  -0.003348  -0.084072
    23  C    0.498532  -0.206758   0.042755  -0.084967   0.049466   0.169802
    24  H   -0.043922  -0.055763  -0.013227  -0.000361   0.013876   0.013046
    25  H    0.534323  -0.093086   0.010883  -0.007661  -0.002245   0.003590
    26  C   -0.093086   5.521553   0.357816   0.425314   0.383986  -0.037147
    27  H    0.010883   0.357816   0.574450  -0.030154  -0.050963   0.001439
    28  H   -0.007661   0.425314  -0.030154   0.521327  -0.022134  -0.000757
    29  H   -0.002245   0.383986  -0.050963  -0.022134   0.553928   0.007094
    30  C    0.003590  -0.037147   0.001439  -0.000757   0.007094   5.541739
    31  H   -0.003324   0.010778   0.000443   0.000526  -0.003843   0.355121
    32  H    0.000377  -0.000014   0.000636  -0.000127   0.000430   0.363775
    33  H   -0.000436  -0.001418  -0.000173  -0.000097   0.000415   0.438849
    34  O    0.000000   0.000000   0.000000   0.000000   0.000000   0.000000
    35  C    0.000032   0.000080  -0.000017   0.000001  -0.000040  -0.000148
    36  C    0.000002  -0.000006   0.000010   0.000000   0.000000   0.000015
    37  C    0.000000   0.000000   0.000001   0.000000  -0.000001  -0.000004
    38  H    0.000000   0.000000   0.000000   0.000000   0.000000   0.000000
    39  C    0.000004   0.000018  -0.000020   0.000002  -0.000003  -0.000006
    40  H    0.000000   0.000000   0.000000   0.000000   0.000000   0.000000
    41  H   -0.000006   0.000023  -0.000003  -0.000001  -0.000002  -0.000002
    42  H    0.000000   0.000000   0.000000   0.000000   0.000000   0.000000
              31         32         33         34         35         36
     1  C    0.035037  -0.027202  -0.007796  -0.000125   0.147114  -0.004905
     2  C    0.012128  -0.014856  -0.001298   0.000422   0.127570  -0.003530
     3  C    0.005960   0.004692  -0.002749  -0.009880   0.746332  -0.311059
     4  C   -0.007886  -0.001493   0.004028   0.021311  -0.749432  -0.007406
     5  C   -0.024233  -0.024427   0.030271  -0.001730   0.021889  -0.017146
     6  C   -0.035205   0.024270  -0.013982   0.000368  -0.004981   0.003248
     7  C   -0.001423   0.003309   0.001598   0.093310  -2.420777  -0.226570
     8  C    0.000789   0.004835  -0.000878  -0.137078  -1.361423  -1.383843
     9  C    0.000034  -0.000153  -0.000008  -0.076072  -1.594409  -2.784449
    10  C   -0.000041   0.000406   0.000027  -0.079162  -1.159991  -0.713049
    11  C    0.000018   0.000402  -0.000021   0.401904   0.067761  -0.571776
    12  C   -0.000387   0.000168   0.000382  -0.375214   0.125651   0.404593
    13  H    0.001932  -0.001951  -0.000162  -0.000004   0.009184  -0.000719
    14  H   -0.000240   0.000132  -0.000004   0.000008  -0.015348   0.000655
    15  H   -0.001639  -0.013338   0.001383   0.000163  -0.003032  -0.002958
    16  H    0.000004   0.000026   0.000023  -0.020277  -0.015516   0.000823
    17  O    0.000057   0.000604  -0.000175  -0.002500   0.078189  -0.034102
    18  N   -0.000077   0.000083   0.000022   0.000174   0.188516  -0.036660
    19  N   -0.007847  -0.016632   0.029178   0.000000  -0.000454   0.000068
    20  C    0.072597   0.040900  -0.094033   0.000001   0.001570   0.000069
    21  H    0.015592  -0.010676  -0.006652  -0.000005   0.000223   0.000092
    22  H   -0.002563   0.012523  -0.006377   0.000000   0.000057   0.000000
    23  C   -0.051696   0.006034   0.008151   0.000000   0.000723   0.000001
    24  H   -0.010337   0.003128   0.000336   0.000000  -0.000486   0.000024
    25  H   -0.003324   0.000377  -0.000436   0.000000   0.000032   0.000002
    26  C    0.010778  -0.000014  -0.001418   0.000000   0.000080  -0.000006
    27  H    0.000443   0.000636  -0.000173   0.000000  -0.000017   0.000010
    28  H    0.000526  -0.000127  -0.000097   0.000000   0.000001   0.000000
    29  H   -0.003843   0.000430   0.000415   0.000000  -0.000040   0.000000
    30  C    0.355121   0.363775   0.438849   0.000000  -0.000148   0.000015
    31  H    0.570941  -0.052778  -0.029643   0.000000   0.000010  -0.000004
    32  H   -0.052778   0.574513  -0.029685  -0.000001   0.000009   0.000049
    33  H   -0.029643  -0.029685   0.530034   0.000000  -0.000016   0.000005
    34  O    0.000000  -0.000001   0.000000   8.234211   0.000493   0.189110
    35  C    0.000010   0.000009  -0.000016   0.000493  11.355266   2.241009
    36  C   -0.000004   0.000049   0.000005   0.189110   2.241009   9.763198
    37  C    0.000000   0.000010   0.000000   0.083068  -0.932666  -0.046672
    38  H    0.000000   0.000000   0.000000  -0.000229  -0.125803  -0.022552
    39  C    0.000000  -0.000013  -0.000001  -0.018897  -0.877408  -0.755042
    40  H    0.000000   0.000000   0.000000   0.001970  -0.017887  -0.067230
    41  H    0.000005  -0.000005   0.000000   0.000205   0.486917   0.042292
    42  H    0.000000  -0.000001   0.000000  -0.002397   0.034924   0.433673
              37         38         39         40         41         42
     1  C    0.004355   0.000034   0.014214   0.000038  -0.002959   0.000095
     2  C    0.033803  -0.002958  -0.034964   0.000365   0.021830   0.000112
     3  C   -0.080668   0.003903   0.629005  -0.000065  -0.010736   0.003492
     4  C   -0.087422   0.005131   0.015965  -0.000609  -0.016228   0.000780
     5  C    0.002414  -0.000017   0.008834   0.000023  -0.000695  -0.000159
     6  C    0.000203   0.000129   0.005089   0.000010  -0.003618  -0.000095
     7  C    0.138861   0.011508  -0.580589   0.002279  -0.029677  -0.012801
     8  C   -0.187318   0.011713  -0.174541  -0.006820   0.000038   0.002825
     9  C    0.709529   0.039025  -1.694996   0.008063   0.067796  -0.001427
    10  C   -0.517048  -0.000636  -0.582378   0.007838   0.042555  -0.023801
    11  C   -0.363408  -0.008134   0.552500   0.003983  -0.014802  -0.009315
    12  C   -0.173233  -0.002777  -0.114043   0.000547  -0.002260   0.028963
    13  H    0.000149  -0.000016   0.002836   0.000002   0.000325   0.000004
    14  H   -0.001655   0.000315  -0.008261  -0.000040  -0.001991  -0.000014
    15  H   -0.000862   0.000035   0.000875  -0.000010  -0.000353   0.000035
    16  H    0.002977  -0.000081  -0.003918  -0.000038   0.000099   0.000169
    17  O    0.000267  -0.000063   0.017894   0.000044  -0.001158  -0.000081
    18  N   -0.023672   0.001534   0.157990  -0.000035  -0.011977   0.000549
    19  N    0.000006  -0.000001  -0.000074   0.000000   0.000048   0.000000
    20  C    0.000037  -0.000002   0.000044   0.000000   0.000025  -0.000004
    21  H    0.000030  -0.000002  -0.000052   0.000000   0.000049  -0.000001
    22  H    0.000001   0.000000   0.000003   0.000000  -0.000003   0.000000
    23  C   -0.000011   0.000004   0.000174   0.000000  -0.000234   0.000000
    24  H   -0.000005   0.000001  -0.000083   0.000000  -0.000049   0.000000
    25  H    0.000000   0.000000   0.000004   0.000000  -0.000006   0.000000
    26  C    0.000000   0.000000   0.000018   0.000000   0.000023   0.000000
    27  H    0.000001   0.000000  -0.000020   0.000000  -0.000003   0.000000
    28  H    0.000000   0.000000   0.000002   0.000000  -0.000001   0.000000
    29  H   -0.000001   0.000000  -0.000003   0.000000  -0.000002   0.000000
    30  C   -0.000004   0.000000  -0.000006   0.000000  -0.000002   0.000000
    31  H    0.000000   0.000000   0.000000   0.000000   0.000005   0.000000
    32  H    0.000010   0.000000  -0.000013   0.000000  -0.000005  -0.000001
    33  H    0.000000   0.000000  -0.000001   0.000000   0.000000   0.000000
    34  O    0.083068  -0.000229  -0.018897   0.001970   0.000205  -0.002397
    35  C   -0.932666  -0.125803  -0.877408  -0.017887   0.486917   0.034924
    36  C   -0.046672  -0.022552  -0.755042  -0.067230   0.042292   0.433673
    37  C    7.447749  -0.032511   0.020972   0.447176  -0.001829  -0.092878
    38  H   -0.032511   0.494231   0.457874  -0.010841  -0.010904   0.000675
    39  C    0.020972   0.457874   9.594329  -0.035839  -0.211288  -0.006481
    40  H    0.447176  -0.010841  -0.035839   0.493133   0.001724  -0.008977
    41  H   -0.001829  -0.010904  -0.211288   0.001724   0.463483   0.001079
    42  H   -0.092878   0.000675  -0.006481  -0.008977   0.001079   0.440158
 Mulliken charges:
               1
     1  C   -0.201478
     2  C   -0.416045
     3  C    0.058144
     4  C    0.163175
     5  C   -0.248162
     6  C   -0.168688
     7  C    0.542072
     8  C    0.128657
     9  C    0.511005
    10  C    0.228491
    11  C   -0.685877
    12  C   -0.497168
    13  H    0.183709
    14  H    0.231621
    15  H    0.235165
    16  H    0.219745
    17  O   -0.077125
    18  N    0.150011
    19  N    0.219433
    20  C   -0.329879
    21  H    0.168685
    22  H    0.180988
    23  C   -0.322300
    24  H    0.162730
    25  H    0.181657
    26  C   -0.422921
    27  H    0.145317
    28  H    0.153227
    29  H    0.158058
    30  C   -0.406626
    31  H    0.151195
    32  H    0.152039
    33  H    0.150902
    34  O   -0.303148
    35  C   -0.353684
    36  C   -0.089255
    37  C   -0.349745
    38  H    0.191417
    39  C   -0.379724
    40  H    0.181196
    41  H    0.192289
    42  H    0.210897
 Sum of Mulliken charges =   0.00000
 Mulliken charges with hydrogens summed into heavy atoms:
               1
     1  C   -0.017769
     2  C   -0.184424
     3  C    0.058144
     4  C    0.163175
     5  C   -0.012997
     6  C   -0.168688
     7  C    0.542072
     8  C    0.128657
     9  C    0.511005
    10  C    0.228491
    11  C   -0.685877
    12  C   -0.277423
    17  O   -0.077125
    18  N    0.150011
    19  N    0.219433
    20  C    0.019795
    23  C    0.022086
    26  C    0.033681
    30  C    0.047510
    34  O   -0.303148
    35  C   -0.161395
    36  C    0.121642
    37  C   -0.168549
    39  C   -0.188307
 Electronic spatial extent (au):  <R**2>=          11113.6715
 Charge=              0.0000 electrons
 Dipole moment (field-independent basis, Debye):
    X=             12.6444    Y=             -3.0937    Z=             -0.3661  Tot=             13.0225
 Quadrupole moment (field-independent basis, Debye-Ang):
   XX=           -119.2761   YY=           -144.0548   ZZ=           -146.5736
   XY=             18.7406   XZ=              1.8163   YZ=              0.0330
 Traceless Quadrupole moment (field-independent basis, Debye-Ang):
   XX=             17.3587   YY=             -7.4199   ZZ=             -9.9388
   XY=             18.7406   XZ=              1.8163   YZ=              0.0330
 Octapole moment (field-independent basis, Debye-Ang**2):
  XXX=            303.3408  YYY=            -35.9434  ZZZ=              2.8491  XYY=             87.0230
  XXY=           -101.2611  XXZ=            -10.7809  XZZ=             21.5306  YZZ=              9.9149
  YYZ=             -6.3108  XYZ=              6.6657
 Hexadecapole moment (field-independent basis, Debye-Ang**3):
 XXXX=         -11719.0724 YYYY=          -2154.7336 ZZZZ=           -317.9472 XXXY=            505.7028
 XXXZ=             50.7111 YYYX=            207.0559 YYYZ=              6.5971 ZZZX=             -4.1950
 ZZZY=             -2.8393 XXYY=          -2614.0630 XXZZ=          -2315.0953 YYZZ=           -431.2605
 XXYZ=             -2.7936 YYXZ=             26.1854 ZZXY=            -22.2172
 N-N= 1.892758907280D+03 E-N=-6.187404204497D+03  KE= 1.027875366695D+03
 No NMR shielding tensors so no spin-rotation constants.
 Leave Link  601 at Mon Feb 17 11:47:58 2020, MaxMem=    33554432 cpu:         7.4
 (Enter /opt/sys/apps/gaussian09/D.01/g09/l9999.exe)

 Test job not archived.
 1\1\GINC-S94P30\SP\RCAM-B3LYP TD-FC\6-311++G(d,p)\C20H18N2O2\SALVATORE
 \17-Feb-2020\0\\#p CAM-B3LYP/6-311++G** geom=allcheck nosym TD=(NSTATE
 S=10,ROOT=1) density=current iop(3/119=0810000000) iop(3/120=081000000
 0)\\Nil\\0,1\C,0,2.7568490605,-1.6083007139,-0.1915643872\C,0,1.418727
 2851,-1.9375589343,-0.2208419641\C,0,0.4173440768,-0.9581686503,-0.103
 8093743\C,0,0.8461820969,0.3739518594,0.0425890713\C,0,2.1796195329,0.
 734301657,0.0722690932\C,0,3.1823731119,-0.2561108427,-0.042532624\C,0
 ,-1.4175294068,1.0628871176,0.1182811181\C,0,-1.7975966036,-0.339192,-
 0.0260030269\C,0,-3.232348094,-0.6455879701,-0.0510241304\C,0,-4.17649
 31173,0.3954609593,0.057511774\C,0,-3.7455152119,1.8195237549,0.200495
 6419\C,0,-2.3131536789,2.0728535965,0.2231608236\H,0,3.4848821281,-2.4
 024557372,-0.2654973238\H,0,1.1071164101,-2.9700047192,-0.327990074\H,
 0,2.413704714,1.7844426995,0.1652092448\H,0,-1.9822490884,3.0984358609
 ,0.3283330714\O,0,-0.0834945271,1.3706005359,0.1507058378\N,0,-0.91339
 18968,-1.2910480272,-0.1315920716\N,0,4.5166637979,0.0740982873,-0.008
 8763245\C,0,4.9669039008,1.4387919363,0.2688230625\H,0,4.3025900628,1.
 8931405916,1.0074011573\H,0,5.9443034086,1.3657100444,0.7535347812\C,0
 ,5.567369613,-0.9158022778,-0.2520847542\H,0,5.2321308671,-1.618267057
 1,-1.0181358466\H,0,6.416894775,-0.3842566716,-0.6895381182\C,0,6.0232
 26163,-1.6654321305,1.0052003217\H,0,5.2014918315,-2.2268500133,1.4548
 015135\H,0,6.8232488142,-2.3687961284,0.756477173\H,0,6.4067637788,-0.
 9717765959,1.7580386484\C,0,5.0767723748,2.3260322516,-0.9765648886\H,
 0,5.7799741753,1.9021838153,-1.6983910587\H,0,4.1114468198,2.437509468
 ,-1.4746971864\H,0,5.4361647545,3.3215914803,-0.7006521072\O,0,-4.5650
 176567,2.7310414784,0.2942271179\C,0,-3.6806602995,-1.9698520915,-0.18
 3225346\C,0,-5.5439500056,0.0977782827,0.0321831746\C,0,-5.9752821294,
 -1.2139913069,-0.0983884666\H,0,-5.3743982263,-3.2752344078,-0.3083011
 311\C,0,-5.0383595924,-2.249283143,-0.2061359857\H,0,-7.035991665,-1.4
 379183914,-0.1171912681\H,0,-2.9470814575,-2.7613600801,-0.2659454816\
 H,0,-6.2445288959,0.9194802134,0.1172623138\\Version=ES64L-G09RevD.01\
 HF=-1031.8648266\RMSD=5.915e-09\Dipole=4.9746866,-1.2171369,-0.1440314
 \Quadrupole=12.9057797,-5.5165479,-7.3892318,13.9332016,1.350405,0.024
 5127\PG=C01 [X(C20H18N2O2)]\\@


 IN NATURE THERE ARE NEITHER REWARDS OR
 PUNISHMENTS -- THERE ARE CONSEQUENCES.

                            -- ROBERT GREEN INGERSOLL
 Job cpu time:       1 days 14 hours 55 minutes 53.2 seconds.
 File lengths (MBytes):  RWF=    908 Int=      0 D2E=      0 Chk=    196 Scr=      1
 Normal termination of Gaussian 09 at Mon Feb 17 11:47:58 2020.
