 Entering Gaussian System, Link 0=g09
 Initial command:
 /opt/sys/apps/gaussian09/D.01/g09/l1.exe "/tmp/Gau-30556.inp" -scrdir="/tmp/"
 Entering Link 1 = /opt/sys/apps/gaussian09/D.01/g09/l1.exe PID=     30557.
  
 Copyright (c) 1988,1990,1992,1993,1995,1998,2003,2009,2013,
            Gaussian, Inc.  All Rights Reserved.
  
 This is part of the Gaussian(R) 09 program.  It is based on
 the Gaussian(R) 03 system (copyright 2003, Gaussian, Inc.),
 the Gaussian(R) 98 system (copyright 1998, Gaussian, Inc.),
 the Gaussian(R) 94 system (copyright 1995, Gaussian, Inc.),
 the Gaussian 92(TM) system (copyright 1992, Gaussian, Inc.),
 the Gaussian 90(TM) system (copyright 1990, Gaussian, Inc.),
 the Gaussian 88(TM) system (copyright 1988, Gaussian, Inc.),
 the Gaussian 86(TM) system (copyright 1986, Carnegie Mellon
 University), and the Gaussian 82(TM) system (copyright 1983,
 Carnegie Mellon University). Gaussian is a federally registered
 trademark of Gaussian, Inc.
  
 This software contains proprietary and confidential information,
 including trade secrets, belonging to Gaussian, Inc.
  
 This software is provided under written license and may be
 used, copied, transmitted, or stored only in accord with that
 written license.
  
 The following legend is applicable only to US Government
 contracts under FAR:
  
                    RESTRICTED RIGHTS LEGEND
  
 Use, reproduction and disclosure by the US Government is
 subject to restrictions as set forth in subparagraphs (a)
 and (c) of the Commercial Computer Software - Restricted
 Rights clause in FAR 52.227-19.
  
 Gaussian, Inc.
 340 Quinnipiac St., Bldg. 40, Wallingford CT 06492
  
  
 ---------------------------------------------------------------
 Warning -- This program may not be used in any manner that
 competes with the business of Gaussian, Inc. or will provide
 assistance to any competitor of Gaussian, Inc.  The licensee
 of this program is prohibited from giving any competitor of
 Gaussian, Inc. access to this program.  By using this program,
 the user acknowledges that Gaussian, Inc. is engaged in the
 business of creating and licensing software in the field of
 computational chemistry and represents and warrants to the
 licensee that it is not a competitor of Gaussian, Inc. and that
 it will not use this program in any manner prohibited above.
 ---------------------------------------------------------------
  

 Cite this work as:
 Gaussian 09, Revision D.01,
 M. J. Frisch, G. W. Trucks, H. B. Schlegel, G. E. Scuseria, 
 M. A. Robb, J. R. Cheeseman, G. Scalmani, V. Barone, B. Mennucci, 
 G. A. Petersson, H. Nakatsuji, M. Caricato, X. Li, H. P. Hratchian, 
 A. F. Izmaylov, J. Bloino, G. Zheng, J. L. Sonnenberg, M. Hada, 
 M. Ehara, K. Toyota, R. Fukuda, J. Hasegawa, M. Ishida, T. Nakajima, 
 Y. Honda, O. Kitao, H. Nakai, T. Vreven, J. A. Montgomery, Jr., 
 J. E. Peralta, F. Ogliaro, M. Bearpark, J. J. Heyd, E. Brothers, 
 K. N. Kudin, V. N. Staroverov, T. Keith, R. Kobayashi, J. Normand, 
 K. Raghavachari, A. Rendell, J. C. Burant, S. S. Iyengar, J. Tomasi, 
 M. Cossi, N. Rega, J. M. Millam, M. Klene, J. E. Knox, J. B. Cross, 
 V. Bakken, C. Adamo, J. Jaramillo, R. Gomperts, R. E. Stratmann, 
 O. Yazyev, A. J. Austin, R. Cammi, C. Pomelli, J. W. Ochterski, 
 R. L. Martin, K. Morokuma, V. G. Zakrzewski, G. A. Voth, 
 P. Salvador, J. J. Dannenberg, S. Dapprich, A. D. Daniels, 
 O. Farkas, J. B. Foresman, J. V. Ortiz, J. Cioslowski, 
 and D. J. Fox, Gaussian, Inc., Wallingford CT, 2013.
 
 ******************************************
 Gaussian 09:  ES64L-G09RevD.01 24-Apr-2013
                17-Feb-2020 
 ******************************************
 %NProcShared=24
 Will use up to   24 processors via shared memory.
 %mem=50GB
 %oldChk=checkpointCPCM_acet.chk
 %Chk=checkpointCPCMES.chk
 Copying data from "checkpointCPCM_acet.chk" to current chk file "checkpointCPCMES.chk".
 ----------------------------------------------------------------------
 #p CAM-B3LYP/6-311++G** nosym density=current geom=allcheck EmpiricalD
 ispersion=GD3 SCRF=(CPCM, solvent=acetonitrile) IOP(10/74=10) TD=(NSTA
 TES=10,ROOT=1,NONEQ) iop(3/119=0810000000) iop(3/120=0810000000)
 ----------------------------------------------------------------------
 1/29=7,30=1,38=1/1;
 2/12=2,15=1,40=1/2;
 3/5=4,6=6,7=1111,11=9,14=-4,16=1,25=1,30=1,70=2101,71=1,72=2,74=-40,119=810000000,120=810000000,124=31/1,2,8,3;
 4//1;
 5/5=2,38=5,53=2/2;
 8/6=1,10=2,107=1,108=10/1;
 9/8=1,15=1,41=10,42=1,70=2,73=1/14;
 10/5=4,13=10,31=1,74=10/2;
 6/7=2,8=2,9=2,10=2,22=-1/1;
 99/5=1,9=1/99;
 Leave Link    1 at Mon Feb 17 09:42:40 2020, MaxMem=  6710886400 cpu:        13.5
 (Enter /opt/sys/apps/gaussian09/D.01/g09/l101.exe)
 Structure from the checkpoint file:  "checkpointCPCMES.chk"
 ---
 Nil
 ---
 Charge =  0 Multiplicity = 1
 Redundant internal coordinates found in file.
 C,0,2.763144772,-1.6105138837,-0.2061859596
 C,0,1.4313041603,-1.9431826301,-0.2366706708
 C,0,0.4237842101,-0.9620042724,-0.1143714318
 C,0,0.8542567731,0.3758172878,0.0388749316
 C,0,2.1809446226,0.7407353163,0.0725131418
 C,0,3.1885114477,-0.2514782029,-0.0471460358
 C,0,-1.4103360001,1.0540356465,0.1198726811
 C,0,-1.78968602,-0.3385277279,-0.0291698843
 C,0,-3.2200004524,-0.6443095673,-0.0524885453
 C,0,-4.1643288457,0.4002694912,0.0637125726
 C,0,-3.7291544255,1.8176592424,0.2105559913
 C,0,-2.3089818743,2.069871856,0.2314769094
 H,0,3.4938795801,-2.4009647305,-0.2859431006
 H,0,1.1259645925,-2.976995361,-0.3487093975
 H,0,2.4147906709,1.7898578216,0.1723677276
 H,0,-1.9670647047,3.0915417038,0.3397829598
 O,0,-0.0835691891,1.3662037454,0.1507775966
 N,0,-0.8960097075,-1.2913830132,-0.1417086739
 N,0,4.5091446619,0.0747692639,-0.0086357421
 C,0,4.9635605984,1.442189258,0.2710298792
 H,0,4.3056633795,1.8984009605,1.0129562962
 H,0,5.9436244408,1.3641552189,0.7459423607
 C,0,5.5682029325,-0.9139054396,-0.2489281733
 H,0,5.2457546929,-1.6139046301,-1.0211776579
 H,0,6.4183945793,-0.3740499754,-0.6706891984
 C,0,5.9961583987,-1.6547307252,1.0205201575
 H,0,5.1639643895,-2.2181420616,1.4484618611
 H,0,6.8046669919,-2.3540449619,0.7922530481
 H,0,6.3552783001,-0.9511132616,1.7757489955
 C,0,5.0595105484,2.3101806616,-0.9863400235
 H,0,5.7535266959,1.8693672301,-1.7064164656
 H,0,4.0861650404,2.4137097271,-1.470957658
 H,0,5.4231119523,3.3077698971,-0.7268017597
 O,0,-4.5578140732,2.7384990428,0.3111055315
 C,0,-3.6750438536,-1.9676809769,-0.1897009027
 C,0,-5.5339229714,0.1003947747,0.040809735
 C,0,-5.9694795679,-1.2091397846,-0.0944585221
 H,0,-5.3700353521,-3.27078166,-0.3161384386
 C,0,-5.0328669675,-2.2459676854,-0.2100692279
 H,0,-7.0302475664,-1.4311041083,-0.1109931337
 H,0,-2.9487354864,-2.7650686614,-0.2787728278
 H,0,-6.2403293739,0.9161331755,0.1312330543
 Recover connectivity data from disk.
 NAtoms=     42 NQM=       42 NQMF=       0 NMMI=      0 NMMIF=      0
                NMic=       0 NMicF=      0.
                    Isotopes and Nuclear Properties:
 (Nuclear quadrupole moments (NQMom) in fm**2, nuclear magnetic moments (NMagM)
  in nuclear magnetons)

  Atom         1           2           3           4           5           6           7           8           9          10
 IAtWgt=          12          12          12          12          12          12          12          12          12          12
 AtmWgt=  12.0000000  12.0000000  12.0000000  12.0000000  12.0000000  12.0000000  12.0000000  12.0000000  12.0000000  12.0000000
 NucSpn=           0           0           0           0           0           0           0           0           0           0
 AtZEff=  -3.6000000  -3.6000000  -3.6000000  -3.6000000  -3.6000000  -3.6000000  -3.6000000  -3.6000000  -3.6000000  -3.6000000
 NQMom=    0.0000000   0.0000000   0.0000000   0.0000000   0.0000000   0.0000000   0.0000000   0.0000000   0.0000000   0.0000000
 NMagM=    0.0000000   0.0000000   0.0000000   0.0000000   0.0000000   0.0000000   0.0000000   0.0000000   0.0000000   0.0000000
 AtZNuc=   6.0000000   6.0000000   6.0000000   6.0000000   6.0000000   6.0000000   6.0000000   6.0000000   6.0000000   6.0000000

  Atom        11          12          13          14          15          16          17          18          19          20
 IAtWgt=          12          12           1           1           1           1          16          14          14          12
 AtmWgt=  12.0000000  12.0000000   1.0078250   1.0078250   1.0078250   1.0078250  15.9949146  14.0030740  14.0030740  12.0000000
 NucSpn=           0           0           1           1           1           1           0           2           2           0
 AtZEff=  -3.6000000  -3.6000000  -1.0000000  -1.0000000  -1.0000000  -1.0000000  -5.6000000  -4.5500000  -4.5500000  -3.6000000
 NQMom=    0.0000000   0.0000000   0.0000000   0.0000000   0.0000000   0.0000000   0.0000000   2.0440000   2.0440000   0.0000000
 NMagM=    0.0000000   0.0000000   2.7928460   2.7928460   2.7928460   2.7928460   0.0000000   0.4037610   0.4037610   0.0000000
 AtZNuc=   6.0000000   6.0000000   1.0000000   1.0000000   1.0000000   1.0000000   8.0000000   7.0000000   7.0000000   6.0000000

  Atom        21          22          23          24          25          26          27          28          29          30
 IAtWgt=           1           1          12           1           1          12           1           1           1          12
 AtmWgt=   1.0078250   1.0078250  12.0000000   1.0078250   1.0078250  12.0000000   1.0078250   1.0078250   1.0078250  12.0000000
 NucSpn=           1           1           0           1           1           0           1           1           1           0
 AtZEff=  -1.0000000  -1.0000000  -3.6000000  -1.0000000  -1.0000000  -3.6000000  -1.0000000  -1.0000000  -1.0000000  -3.6000000
 NQMom=    0.0000000   0.0000000   0.0000000   0.0000000   0.0000000   0.0000000   0.0000000   0.0000000   0.0000000   0.0000000
 NMagM=    2.7928460   2.7928460   0.0000000   2.7928460   2.7928460   0.0000000   2.7928460   2.7928460   2.7928460   0.0000000
 AtZNuc=   1.0000000   1.0000000   6.0000000   1.0000000   1.0000000   6.0000000   1.0000000   1.0000000   1.0000000   6.0000000

  Atom        31          32          33          34          35          36          37          38          39          40
 IAtWgt=           1           1           1          16          12          12          12           1          12           1
 AtmWgt=   1.0078250   1.0078250   1.0078250  15.9949146  12.0000000  12.0000000  12.0000000   1.0078250  12.0000000   1.0078250
 NucSpn=           1           1           1           0           0           0           0           1           0           1
 AtZEff=  -1.0000000  -1.0000000  -1.0000000  -5.6000000  -3.6000000  -3.6000000  -3.6000000  -1.0000000  -3.6000000  -1.0000000
 NQMom=    0.0000000   0.0000000   0.0000000   0.0000000   0.0000000   0.0000000   0.0000000   0.0000000   0.0000000   0.0000000
 NMagM=    2.7928460   2.7928460   2.7928460   0.0000000   0.0000000   0.0000000   0.0000000   2.7928460   0.0000000   2.7928460
 AtZNuc=   1.0000000   1.0000000   1.0000000   8.0000000   6.0000000   6.0000000   6.0000000   1.0000000   6.0000000   1.0000000

  Atom        41          42
 IAtWgt=           1           1
 AtmWgt=   1.0078250   1.0078250
 NucSpn=           1           1
 AtZEff=  -1.0000000  -1.0000000
 NQMom=    0.0000000   0.0000000
 NMagM=    2.7928460   2.7928460
 AtZNuc=   1.0000000   1.0000000
 Leave Link  101 at Mon Feb 17 09:42:40 2020, MaxMem=  6710886400 cpu:         8.9
 (Enter /opt/sys/apps/gaussian09/D.01/g09/l202.exe)
                          Input orientation:                          
 ---------------------------------------------------------------------
 Center     Atomic      Atomic             Coordinates (Angstroms)
 Number     Number       Type             X           Y           Z
 ---------------------------------------------------------------------
      1          6           0        2.763145   -1.610514   -0.206186
      2          6           0        1.431304   -1.943183   -0.236671
      3          6           0        0.423784   -0.962004   -0.114371
      4          6           0        0.854257    0.375817    0.038875
      5          6           0        2.180945    0.740735    0.072513
      6          6           0        3.188511   -0.251478   -0.047146
      7          6           0       -1.410336    1.054036    0.119873
      8          6           0       -1.789686   -0.338528   -0.029170
      9          6           0       -3.220000   -0.644310   -0.052489
     10          6           0       -4.164329    0.400269    0.063713
     11          6           0       -3.729154    1.817659    0.210556
     12          6           0       -2.308982    2.069872    0.231477
     13          1           0        3.493880   -2.400965   -0.285943
     14          1           0        1.125965   -2.976995   -0.348709
     15          1           0        2.414791    1.789858    0.172368
     16          1           0       -1.967065    3.091542    0.339783
     17          8           0       -0.083569    1.366204    0.150778
     18          7           0       -0.896010   -1.291383   -0.141709
     19          7           0        4.509145    0.074769   -0.008636
     20          6           0        4.963561    1.442189    0.271030
     21          1           0        4.305663    1.898401    1.012956
     22          1           0        5.943624    1.364155    0.745942
     23          6           0        5.568203   -0.913905   -0.248928
     24          1           0        5.245755   -1.613905   -1.021178
     25          1           0        6.418395   -0.374050   -0.670689
     26          6           0        5.996158   -1.654731    1.020520
     27          1           0        5.163964   -2.218142    1.448462
     28          1           0        6.804667   -2.354045    0.792253
     29          1           0        6.355278   -0.951113    1.775749
     30          6           0        5.059511    2.310181   -0.986340
     31          1           0        5.753527    1.869367   -1.706416
     32          1           0        4.086165    2.413710   -1.470958
     33          1           0        5.423112    3.307770   -0.726802
     34          8           0       -4.557814    2.738499    0.311106
     35          6           0       -3.675044   -1.967681   -0.189701
     36          6           0       -5.533923    0.100395    0.040810
     37          6           0       -5.969480   -1.209140   -0.094459
     38          1           0       -5.370035   -3.270782   -0.316138
     39          6           0       -5.032867   -2.245968   -0.210069
     40          1           0       -7.030248   -1.431104   -0.110993
     41          1           0       -2.948735   -2.765069   -0.278773
     42          1           0       -6.240329    0.916133    0.131233
 ---------------------------------------------------------------------
                    Distance matrix (angstroms):
                    1          2          3          4          5
     1  C    0.000000
     2  C    1.373098   0.000000
     3  C    2.429321   1.411653   0.000000
     4  C    2.765758   2.405550   1.413704   0.000000
     5  C    2.438238   2.803742   2.453948   1.376371   0.000000
     6  C    1.432902   2.446541   2.855360   2.418604   1.419154
     7  C    4.962266   4.145523   2.735559   2.365359   3.605232
     8  C    4.730492   3.604546   2.301181   2.739590   4.115951
     9  C    6.062607   4.832766   3.658132   4.201021   5.577112
    10  C    7.218448   6.073970   4.789393   5.018707   6.354407
    11  C    7.353638   6.401115   5.007894   4.807914   6.009001
    12  C    6.281979   5.505770   4.096327   3.593466   4.685223
    13  H    1.079420   2.113341   3.394927   3.844949   3.423824
    14  H    2.137275   1.083768   2.146663   3.386060   3.887407
    15  H    3.439067   3.882029   3.408676   2.110118   1.079497
    16  H    6.691957   6.101611   4.727965   3.927539   4.775323
    17  O    4.134253   3.660191   2.397554   1.368541   2.350608
    18  N    3.673610   2.418729   1.360549   2.423964   3.693649
    19  N    2.434691   3.687442   4.216189   3.667573   2.422934
    20  C    3.793226   4.918876   5.151529   4.251755   2.876525
    21  H    4.022208   4.957950   4.951946   3.896063   2.595969
    22  H    4.457651   5.680233   6.051429   5.232439   3.872973
    23  C    2.890578   4.263038   5.146403   4.895662   3.783475
    24  H    2.612963   3.908185   4.949613   4.936391   4.016659
    25  H    3.886574   5.246105   6.049011   5.659100   4.444219
    26  C    3.458199   4.743588   5.728805   5.614793   4.603567
    27  H    2.978423   4.104635   5.146809   5.223901   4.421153
    28  H    4.228903   5.486394   6.593589   6.589925   5.610214
    29  H    4.155274   5.411059   6.225375   5.919351   4.815436
    30  C    4.610182   5.640655   5.740861   4.740990   3.445355
    31  H    4.827282   5.947882   6.241588   5.411061   4.147498
    32  H    4.420906   5.249215   5.162248   4.108264   2.968335
    33  H    5.615691   6.614171   6.602978   5.482431   4.211914
    34  O    8.530999   7.621531   6.220215   5.911589   7.032699
    35  C    6.448109   5.106623   4.221072   5.104782   6.457312
    36  C    8.475231   7.264131   6.053681   6.394115   7.741461
    37  C    8.742558   7.438457   6.398070   7.006657   8.382082
    38  H    8.301638   6.930155   6.240153   7.222571   8.559242
    39  C    7.821868   6.471313   5.606493   6.449338   7.812767
    40  H    9.795498   8.477964   7.468779   8.090293   9.465549
    41  H    5.827851   4.456682   3.827788   4.942551   6.223157
    42  H    9.357368   8.195426   6.928068   7.115731   8.423305
                    6          7          8          9         10
     6  C    0.000000
     7  C    4.783478   0.000000
     8  C    4.978991   1.450983   0.000000
     9  C    6.420543   2.487764   1.462821   0.000000
    10  C    7.382501   2.831085   2.488650   1.412942   0.000000
    11  C    7.225084   2.443003   2.910008   2.527790   1.489944
    12  C    5.974004   1.360861   2.477497   2.877042   2.501605
    13  H    2.184163   6.012740   5.677644   6.943812   8.161944
    14  H    3.431251   4.785562   3.945204   4.941314   6.289930
    15  H    2.194056   3.895611   4.716807   6.142198   6.725145
    16  H    6.156741   2.123614   3.454412   3.959837   3.485273
    17  O    3.655486   1.363347   2.418538   3.731043   4.194426
    18  N    4.215882   2.415356   1.311204   2.414042   3.685891
    19  N    1.360879   6.001311   6.312409   7.762647   8.679881
    20  C    2.473973   6.387493   6.990523   8.451557   9.189502
    21  H    2.644584   5.846640   6.575953   8.014747   8.653683
    22  H    3.290883   7.387075   7.956382   9.415065  10.176700
    23  C    2.478398   7.260083   7.383623   8.794532   9.825832
    24  H    2.652771   7.261091   7.218593   8.575983   9.684191
    25  H    3.291804   7.997089   8.233189   9.661981  10.636397
    26  C    3.315405   7.937553   7.965778   9.333268  10.410284
    27  H    3.163388   7.462823   7.353203   8.661447   9.787271
    28  H    4.266375   8.919270   8.865661  10.204447  11.332956
    29  H    3.720329   8.189464   8.365013   9.753079  10.743344
    30  C    3.308296   6.682853   7.405628   8.840328   9.477847
    31  H    3.718934   7.437811   8.036667   9.464578  10.181133
    32  H    3.152182   5.881410   6.646743   8.046340   8.630168
    33  H    4.257184   7.245149   8.112129   9.527698  10.049751
    34  O    8.311069   3.574997   4.152880   3.655864   2.383978
    35  C    7.076303   3.788866   2.496895   1.406131   2.431215
    36  C    8.729972   4.233161   3.770525   2.432597   1.402226
    37  C    9.208048   5.094477   4.270000   2.807210   2.423589
    38  H    9.079497   5.879912   4.636741   3.404485   3.882606
    39  C    8.461418   4.911376   3.766865   2.424175   2.798551
    40  H   10.286818   6.149197   5.353868   3.891073   3.405575
    41  H    6.636082   4.136562   2.700703   2.149979   3.407980
    42  H    9.502535   4.831975   4.626892   3.404574   2.140199
                   11         12         13         14         15
    11  C    0.000000
    12  C    1.442546   0.000000
    13  H    8.379470   7.343657   0.000000
    14  H    6.846435   6.132401   2.437780   0.000000
    15  H    6.144127   4.732434   4.351721   4.965429   0.000000
    16  H    2.178173   1.082796   7.770526   6.846020   4.574174
    17  O    3.673919   2.335406   5.213485   4.536060   2.534117
    18  N    4.221012   3.665214   4.530243   2.640553   4.533662
    19  N    8.423496   7.108090   2.690153   4.568898   2.713044
    20  C    8.701030   7.299687   4.152110   5.885611   2.574264
    21  H    8.075188   6.662856   4.564064   5.977801   2.072141
    22  H    9.698193   8.298688   4.608922   6.576754   3.600400
    23  C    9.701207   8.437047   2.552554   4.898957   4.175145
    24  H    9.687197   8.497847   2.056478   4.391230   4.585249
    25  H   10.418874   9.107895   3.578994   5.906675   4.628400
    26  C   10.358342   9.136225   2.919779   5.228954   5.040907
    27  H    9.844169   8.701324   2.414698   4.484543   5.024981
    28  H   11.344729  10.146137   3.482244   5.825592   6.068542
    29  H   10.574106   9.304866   3.813167   5.996936   5.060751
    30  C    8.883455   7.472316   5.013646   6.620694   2.933919
    31  H    9.674642   8.294557   5.035820   6.837026   3.831881
    32  H    8.016357   6.626795   4.993611   6.251554   2.425531
    33  H    9.320035   7.888977   6.042015   7.622775   3.487486
    34  O    1.242873   2.347477   9.570806   8.087495   7.038209
    35  C    3.806827   4.283147   7.182650   4.908531   7.164934
    36  C    2.496998   3.783575   9.373622   7.346847   8.127339
    37  C    3.778042   4.925180   9.540036   7.316781   8.908489
    38  H    5.372348   6.180009   8.906541   6.502721   9.297969
    39  C    4.288316   5.122595   8.528493   6.203614   8.479490
    40  H    4.642744   5.887654  10.570170   8.304823   9.983168
    41  H    4.674387   4.903702   6.452900   4.080807   7.051120
    42  H    2.669277   4.098372  10.292327   8.345603   8.699206
                   16         17         18         19         20
    16  H    0.000000
    17  O    2.561263   0.000000
    18  N    4.537513   2.794347   0.000000
    19  N    7.152873   4.773493   5.576717   0.000000
    20  C    7.124511   5.049134   6.478992   1.467837   0.000000
    21  H    6.420581   4.504659   6.210103   2.100164   1.091519
    22  H    8.107270   6.056508   7.390562   2.071144   1.091859
    23  C    8.553973   6.107470   6.476112   1.468612   2.487394
    24  H    8.718842   6.217412   6.212790   2.102250   3.330037
    25  H    9.129475   6.780769   7.390658   2.070021   2.510399
    26  C    9.295344   6.844383   6.998913   2.502307   3.349464
    27  H    8.959547   6.485995   6.333310   2.794524   3.850264
    28  H   10.334526   7.854905   7.829557   3.436566   4.251205
    29  H    9.363036   7.033438   7.508236   2.764900   3.151024
    30  C    7.193183   5.351205   7.010912   2.501174   1.530880
    31  H    8.080110   6.146058   7.526951   2.766140   2.171824
    32  H    6.354512   4.594995   6.349542   2.790688   2.179035
    33  H    7.469877   5.904520   7.837464   3.435606   2.165005
    34  O    2.614851   4.682709   5.463863   9.455550   9.609298
    35  C    5.365937   4.912169   2.860544   8.437140   9.298654
    36  C    4.664635   5.596492   4.845678  10.043222  10.585394
    37  C    5.890989   6.429345   5.074356  10.557336  11.255865
    38  H    7.244971   7.047437   4.895442  10.434820  11.372777
    39  C    6.179845   6.137878   4.246115   9.822239  10.665952
    40  H    6.803921   7.493317   6.135906  11.637685  12.339092
    41  H    5.970442   5.045900   2.530656   7.984837   8.978181
    42  H    4.799655   6.173220   5.788728  10.783258  11.217104
                   21         22         23         24         25
    21  H    0.000000
    22  H    1.743454   0.000000
    23  C    3.330980   2.514015   0.000000
    24  H    4.166265   3.532503   1.091027   0.000000
    25  H    3.530202   2.292075   1.091857   1.742173   0.000000
    26  C    3.934790   3.031802   1.530839   2.175615   2.163011
    27  H    4.227561   3.732862   2.178434   2.543799   3.076536
    28  H    4.937310   3.816877   2.164926   2.503307   2.491944
    29  H    3.592006   2.567183   2.172600   3.081093   2.514368
    30  C    2.176013   2.162735   3.346233   3.928657   3.025111
    31  H    3.080932   2.511064   3.147257   3.586163   2.558848
    32  H    2.546282   3.076746   3.842241   4.215285   3.721737
    33  H    2.502353   2.493501   4.251112   4.933659   3.814385
    34  O    8.930823  10.599911  10.779143  10.808717  11.451159
    35  C    8.949003  10.222296   9.303309   8.966446  10.229785
    36  C   10.049645  11.568422  11.152128  10.966681  11.982872
    37  C   10.791744  12.216799  11.542493  11.260734  12.429354
    38  H   11.050162  12.272308  11.189479  10.767419  12.144293
    39  C   10.289788  11.594409  10.684502  10.329930  11.612392
    40  H   11.868098  13.299217  12.609817  12.311055  13.501726
    41  H    8.720253   9.857718   8.715844   8.308190   9.675417
    42  H   10.628276  12.207675  11.955543  11.817752  12.749547
                   26         27         28         29         30
    26  C    0.000000
    27  H    1.092297   0.000000
    28  H    1.093084   1.772282   0.000000
    29  H    1.092893   1.769663   1.771280   0.000000
    30  C    4.541511   5.142458   5.288097   4.465892   0.000000
    31  H    4.462546   5.196977   5.018511   4.521359   1.092925
    32  H    5.138847   5.580207   5.936654   5.197308   1.092233
    33  H    5.292252   5.944294   6.022655   5.026906   1.093046
    34  O   11.453823  10.971547  12.460798  11.612666   9.713895
    35  C    9.751652   8.993018  10.532704  10.271503   9.758441
    36  C   11.703977  11.036389  12.602767  12.061044  10.870098
    37  C   12.025732  11.285046  12.855967  12.468517  11.611188
    38  H   11.558055  10.732521  12.259377  12.134242  11.847858
    39  C   11.113204  10.330870  11.880385  11.632282  11.100323
    40  H   13.077369  12.318690  13.895054  13.526363  12.685649
    41  H    9.106708   8.312543   9.820636   9.699287   9.507408
    42  H   12.535223  11.900281  13.464878  12.839018  11.440224
                   31         32         33         34         35
    31  H    0.000000
    32  H    1.769702   0.000000
    33  H    1.771390   1.772156   0.000000
    34  O   10.542748   8.831739  10.050881   0.000000
    35  C   10.291808   9.004142  10.530684   4.814376   0.000000
    36  C   11.558053  10.009144  11.442600   2.825853   2.790252
    37  C   12.227203  10.776631  12.271653   4.212023   2.418448
    38  H   12.332382  11.093547  12.646660   6.096277   2.141741
    39  C   11.641363  10.317906  11.850675   5.034104   1.386197
    40  H   13.298999  11.840892  13.338752   4.865869   3.398750
    41  H    9.962205   8.816512  10.352194   5.764230   1.082259
    42  H   12.171203  10.556810  11.937002   2.486811   3.872993
                   36         37         38         39         40
    36  C    0.000000
    37  C    1.386682   0.000000
    38  H    3.393980   2.158435   0.000000
    39  C    2.412346   1.402006   1.084056   0.000000
    40  H    2.146514   1.083868   2.486524   2.159479   0.000000
    41  H    3.872494   3.402908   2.473830   2.148904   4.297249
    42  H    1.082874   2.154317   4.299745   3.401960   2.488407
                   41         42
    41  H    0.000000
    42  H    4.955193   0.000000
 Symmetry turned off by external request.
 Stoichiometry    C20H18N2O2
 Framework group  C1[X(C20H18N2O2)]
 Deg. of freedom   120
 Full point group                 C1      NOp   1
 Rotational constants (GHZ):      0.6519897      0.1066552      0.0932526
 Leave Link  202 at Mon Feb 17 09:42:40 2020, MaxMem=  6710886400 cpu:         0.2
 (Enter /opt/sys/apps/gaussian09/D.01/g09/l301.exe)
 Standard basis: 6-311++G(d,p) (5D, 7F)
 Ernie: Thresh=  0.10000D-02 Tol=  0.10000D-05 Strict=F.
   654 basis functions,  1026 primitive gaussians,   678 cartesian basis functions
    84 alpha electrons       84 beta electrons
       nuclear repulsion energy      1894.3488284411 Hartrees.
 IExCor=20419 DFT=T Ex+Corr=CAM-B3LYP ExCW=0 ScaHFX=  1.000000
 ScaDFX=  1.000000  1.000000  1.000000  0.810000 ScalE2=  1.000000  1.000000
 IRadAn=      0 IRanWt=     -1 IRanGd=            0 ICorTp=0 IEmpDi=131
  HFx wShort=  0.000000 wLong=  0.330000 cFull=  0.190000 cShort=  0.000000 cLong=  0.810000
  DFx wShort=  0.000000 wLong=  0.330000 cFull=  0.190000 cShort=  0.000000 cLong=  0.810000
 NAtoms=   42 NActive=   42 NUniq=   42 SFac= 1.00D+00 NAtFMM=   60 NAOKFM=F Big=F
 Integral buffers will be    131072 words long.
 Raffenetti 1 integral format.
 Two-electron integral symmetry is turned off.
 R6Disp:  Grimme-D3 Dispersion energy=       -0.0278627766 Hartrees.
 Nuclear repulsion after empirical dispersion term =     1894.3209656645 Hartrees.
 ------------------------------------------------------------------------------
 Polarizable Continuum Model (PCM)
 =================================
 Model                : C-PCM.
 Atomic radii         : UFF (Universal Force Field).
 Polarization charges : Total charges.
 Charge compensation  : None.
 Solution method      : On-the-fly selection.
 Cavity type          : Scaled VdW (van der Waals Surface) (Alpha=1.100).
 Cavity algorithm     : GePol (No added spheres)
                        Default sphere list used, NSphG=   42.
                        Lebedev-Laikov grids with approx.  5.0 points / Ang**2.
                        Smoothing algorithm: Karplus/York (Gamma=1.0000).
                        Polarization charges: spherical gaussians, with
                                              point-specific exponents (IZeta= 3).
                        Self-potential: point-specific (ISelfS= 7).
                        Self-field    : sphere-specific E.n sum rule (ISelfD= 2).
 1st derivatives      : Analytical E(r).r(x)/FMM algorithm (CHGder, D1EAlg=3).
                        Cavity 1st derivative terms included.
 Solvent              : Acetonitrile, Eps=  35.688000 Eps(inf)=   1.806874
 ------------------------------------------------------------------------------
 GePol: Number of generator spheres                  =      42
 GePol: Total number of spheres                      =      42
 GePol: Number of exposed spheres                    =      42 (100.00%)
 GePol: Number of points                             =    3067
 GePol: Average weight of points                     =       0.13
 GePol: Minimum weight of points                     =   0.12D-10
 GePol: Maximum weight of points                     =    0.20577
 GePol: Number of points with low weight             =     183
 GePol: Fraction of low-weight points (<1% of avg)   =       5.97%
 GePol: Cavity surface area                          =    392.407 Ang**2
 GePol: Cavity volume                                =    437.214 Ang**3
 Leave Link  301 at Mon Feb 17 09:42:41 2020, MaxMem=  6710886400 cpu:         2.1
 (Enter /opt/sys/apps/gaussian09/D.01/g09/l302.exe)
 NPDir=0 NMtPBC=     1 NCelOv=     1 NCel=       1 NClECP=     1 NCelD=      1
         NCelK=      1 NCelE2=     1 NClLst=     1 CellRange=     0.0.
 One-electron integrals computed using PRISM.
 NBasis=   654 RedAO= T EigKep=  1.10D-06  NBF=   654
 NBsUse=   646 1.00D-06 EigRej=  6.65D-07 NBFU=   646
 Precomputing XC quadrature grid using
 IXCGrd= 4 IRadAn=           0 IRanWt=          -1 IRanGd=           0 AccXCQ= 0.00D+00.
 Generated NRdTot=       0 NPtTot=           0 NUsed=           0 NTot=          32
 NSgBfM=   657   657   657   658   658 MxSgAt=    42 MxSgA2=    42.
 Leave Link  302 at Mon Feb 17 09:42:42 2020, MaxMem=  6710886400 cpu:        23.9
 (Enter /opt/sys/apps/gaussian09/D.01/g09/l308.exe)
 Leave Link  308 at Mon Feb 17 09:42:42 2020, MaxMem=  6710886400 cpu:         3.7
 (Enter /opt/sys/apps/gaussian09/D.01/g09/l303.exe)
 DipDrv:  MaxL=1.
 Leave Link  303 at Mon Feb 17 09:42:43 2020, MaxMem=  6710886400 cpu:         2.8
 (Enter /opt/sys/apps/gaussian09/D.01/g09/l401.exe)
 ExpMin= 3.60D-02 ExpMax= 8.59D+03 ExpMxC= 1.30D+03 IAcc=3 IRadAn=         5 AccDes= 0.00D+00
 Harris functional with IExCor=20419 and IRadAn=       5 diagonalized for initial guess.
 HarFok:  IExCor=20419 AccDes= 0.00D+00 IRadAn=         5 IDoV= 1 UseB2=F ITyADJ=14
 ICtDFT=  3500011 ScaDFX=  1.000000  1.000000  1.000000  1.000000
 FoFCou: FMM=F IPFlag=           0 FMFlag=      100000 FMFlg1=           0
         NFxFlg=           0 DoJE=T BraDBF=F KetDBF=T FulRan=T
         wScrn=  0.000000 ICntrl=     500 IOpCl=  0 I1Cent=   200000004 NGrid=           0
         NMat0=    1 NMatS0=      1 NMatT0=    0 NMatD0=    1 NMtDS0=    0 NMtDT0=    0
 Symmetry not used in FoFCou.
 Harris En= -981.845747685978    
 JPrj=0 DoOrth=F DoCkMO=F.
 Leave Link  401 at Mon Feb 17 09:42:47 2020, MaxMem=  6710886400 cpu:        77.5
 (Enter /opt/sys/apps/gaussian09/D.01/g09/l502.exe)
 Closed shell SCF:
 Using DIIS extrapolation, IDIIS=  1040.
 Two-electron integral symmetry not used.
 IVT=     1418026 IEndB=     1418026 NGot=  6710886400 MDV=  6709945377
 LenX=  6709945377 LenY=  6709485015
 Requested convergence on RMS density matrix=1.00D-08 within 128 cycles.
 Requested convergence on MAX density matrix=1.00D-06.
 Requested convergence on             energy=1.00D-06.
 No special actions if energy rises.
 Fock matrices will be formed incrementally for  20 cycles.

 Cycle   1  Pass 1  IDiag  1:
 FoFJK:  IHMeth= 1 ICntrl=       0 DoSepK=T KAlg= 0 I1Cent=   0 FoldK=F
 IRaf=         1 NMat=   1 IRICut=       1 DoRegI=T DoRafI=F ISym2E= 0.
 FoFCou: FMM=F IPFlag=           0 FMFlag=      100000 FMFlg1=           0
         NFxFlg=           0 DoJE=T BraDBF=F KetDBF=F FulRan=T
         wScrn=  0.000000 ICntrl=     500 IOpCl=  0 I1Cent=           0 NGrid=           0
         NMat0=    1 NMatS0=      1 NMatT0=    0 NMatD0=    1 NMtDS0=    0 NMtDT0=    0
 Symmetry not used in FoFCou.
 Inv3:  Mode=1 IEnd=    28219467.
 Iteration    1 A*A^-1 deviation from unit magnitude is 5.44D-15 for   3038.
 Iteration    1 A*A^-1 deviation from orthogonality  is 2.98D-15 for   3049   2909.
 Iteration    1 A^-1*A deviation from unit magnitude is 5.44D-15 for   3038.
 Iteration    1 A^-1*A deviation from orthogonality  is 1.95D-15 for   3017   2980.
 E= -1031.50185424022    
 DIIS: error= 4.32D-02 at cycle   1 NSaved=   1.
 NSaved= 1 IEnMin= 1 EnMin= -1031.50185424022     IErMin= 1 ErrMin= 4.32D-02
 ErrMax= 4.32D-02  0.00D+00 EMaxC= 1.00D-01 BMatC= 1.88D+00 BMatP= 1.88D+00
 IDIUse=3 WtCom= 5.68D-01 WtEn= 4.32D-01
 Coeff-Com:  0.100D+01
 Coeff-En:   0.100D+01
 Coeff:      0.100D+01
 Gap=     0.235 Goal=   None    Shift=    0.000
 GapD=    0.235 DampG=1.000 DampE=0.500 DampFc=0.5000 IDamp=-1.
 Damping current iteration by 5.00D-01
 RMSDP=1.12D-02 MaxDP=1.17D+00              OVMax= 1.79D-01

 Cycle   2  Pass 1  IDiag  1:
 RMSU=  5.58D-03    CP:  9.93D-01
 E= -1031.69286902593     Delta-E=       -0.191014785717 Rises=F Damp=T
 DIIS: error= 1.97D-02 at cycle   2 NSaved=   2.
 NSaved= 2 IEnMin= 2 EnMin= -1031.69286902593     IErMin= 2 ErrMin= 1.97D-02
 ErrMax= 1.97D-02  0.00D+00 EMaxC= 1.00D-01 BMatC= 3.70D-01 BMatP= 1.88D+00
 IDIUse=3 WtCom= 8.03D-01 WtEn= 1.97D-01
 Coeff-Com: -0.492D+00 0.149D+01
 Coeff-En:   0.000D+00 0.100D+01
 Coeff:     -0.395D+00 0.140D+01
 Gap=     0.257 Goal=   None    Shift=    0.000
 RMSDP=6.18D-03 MaxDP=6.61D-01 DE=-1.91D-01 OVMax= 1.74D-01

 Cycle   3  Pass 1  IDiag  1:
 RMSU=  4.68D-03    CP:  9.02D-01  1.41D+00
 E= -1031.83407346649     Delta-E=       -0.141204440555 Rises=F Damp=F
 DIIS: error= 1.68D-02 at cycle   3 NSaved=   3.
 NSaved= 3 IEnMin= 3 EnMin= -1031.83407346649     IErMin= 3 ErrMin= 1.68D-02
 ErrMax= 1.68D-02  0.00D+00 EMaxC= 1.00D-01 BMatC= 9.62D-02 BMatP= 3.70D-01
 IDIUse=3 WtCom= 8.32D-01 WtEn= 1.68D-01
 Coeff-Com: -0.312D+00 0.677D+00 0.636D+00
 Coeff-En:   0.000D+00 0.000D+00 0.100D+01
 Coeff:     -0.260D+00 0.563D+00 0.697D+00
 Gap=     0.234 Goal=   None    Shift=    0.000
 RMSDP=2.68D-03 MaxDP=2.18D-01 DE=-1.41D-01 OVMax= 6.60D-02

 Cycle   4  Pass 1  IDiag  1:
 RMSU=  1.71D-03    CP:  8.70D-01  1.65D+00  7.73D-01
 E= -1031.89984160124     Delta-E=       -0.065768134754 Rises=F Damp=F
 DIIS: error= 5.26D-03 at cycle   4 NSaved=   4.
 NSaved= 4 IEnMin= 4 EnMin= -1031.89984160124     IErMin= 4 ErrMin= 5.26D-03
 ErrMax= 5.26D-03  0.00D+00 EMaxC= 1.00D-01 BMatC= 8.15D-03 BMatP= 9.62D-02
 IDIUse=3 WtCom= 9.47D-01 WtEn= 5.26D-02
 Coeff-Com: -0.103D+00 0.221D+00 0.345D+00 0.538D+00
 Coeff-En:   0.000D+00 0.000D+00 0.000D+00 0.100D+01
 Coeff:     -0.979D-01 0.209D+00 0.327D+00 0.562D+00
 Gap=     0.232 Goal=   None    Shift=    0.000
 RMSDP=5.34D-04 MaxDP=4.55D-02 DE=-6.58D-02 OVMax= 1.24D-02

 Cycle   5  Pass 1  IDiag  1:
 RMSU=  3.50D-04    CP:  8.73D-01  1.65D+00  8.23D-01  8.13D-01
 E= -1031.90550026863     Delta-E=       -0.005658667388 Rises=F Damp=F
 DIIS: error= 5.53D-04 at cycle   5 NSaved=   5.
 NSaved= 5 IEnMin= 5 EnMin= -1031.90550026863     IErMin= 5 ErrMin= 5.53D-04
 ErrMax= 5.53D-04  0.00D+00 EMaxC= 1.00D-01 BMatC= 1.28D-04 BMatP= 8.15D-03
 IDIUse=3 WtCom= 9.94D-01 WtEn= 5.53D-03
 Coeff-Com:  0.234D-01-0.518D-01-0.233D-01 0.990D-01 0.953D+00
 Coeff-En:   0.000D+00 0.000D+00 0.000D+00 0.000D+00 0.100D+01
 Coeff:      0.233D-01-0.515D-01-0.231D-01 0.984D-01 0.953D+00
 Gap=     0.234 Goal=   None    Shift=    0.000
 RMSDP=4.92D-04 MaxDP=4.65D-02 DE=-5.66D-03 OVMax= 1.41D-02

 Cycle   6  Pass 1  IDiag  1:
 RMSU=  1.64D-04    CP:  8.63D-01  1.66D+00  8.45D-01  9.51D-01  1.28D+00
 E= -1031.90588633676     Delta-E=       -0.000386068135 Rises=F Damp=F
 DIIS: error= 3.57D-04 at cycle   6 NSaved=   6.
 NSaved= 6 IEnMin= 6 EnMin= -1031.90588633676     IErMin= 6 ErrMin= 3.57D-04
 ErrMax= 3.57D-04  0.00D+00 EMaxC= 1.00D-01 BMatC= 3.95D-05 BMatP= 1.28D-04
 IDIUse=3 WtCom= 9.96D-01 WtEn= 3.57D-03
 Coeff-Com:  0.228D-01-0.491D-01-0.532D-01-0.376D-01 0.370D+00 0.747D+00
 Coeff-En:   0.000D+00 0.000D+00 0.000D+00 0.000D+00 0.000D+00 0.100D+01
 Coeff:      0.227D-01-0.489D-01-0.530D-01-0.374D-01 0.369D+00 0.748D+00
 Gap=     0.236 Goal=   None    Shift=    0.000
 RMSDP=1.40D-04 MaxDP=1.28D-02 DE=-3.86D-04 OVMax= 8.62D-03

 Cycle   7  Pass 1  IDiag  1:
 RMSU=  6.07D-05    CP:  8.61D-01  1.66D+00  8.49D-01  1.00D+00  1.43D+00
                    CP:  1.04D+00
 E= -1031.90600737814     Delta-E=       -0.000121041376 Rises=F Damp=F
 DIIS: error= 2.03D-04 at cycle   7 NSaved=   7.
 NSaved= 7 IEnMin= 7 EnMin= -1031.90600737814     IErMin= 7 ErrMin= 2.03D-04
 ErrMax= 2.03D-04  0.00D+00 EMaxC= 1.00D-01 BMatC= 1.09D-05 BMatP= 3.95D-05
 IDIUse=3 WtCom= 9.98D-01 WtEn= 2.03D-03
 Coeff-Com:  0.451D-03-0.581D-03-0.695D-02-0.328D-01-0.141D+00 0.248D+00
 Coeff-Com:  0.933D+00
 Coeff-En:   0.000D+00 0.000D+00 0.000D+00 0.000D+00 0.000D+00 0.000D+00
 Coeff-En:   0.100D+01
 Coeff:      0.450D-03-0.580D-03-0.694D-02-0.327D-01-0.141D+00 0.247D+00
 Coeff:      0.933D+00
 Gap=     0.236 Goal=   None    Shift=    0.000
 RMSDP=8.80D-05 MaxDP=5.47D-03 DE=-1.21D-04 OVMax= 7.52D-03

 Cycle   8  Pass 1  IDiag  1:
 RMSU=  3.40D-05    CP:  8.60D-01  1.67D+00  8.51D-01  1.03D+00  1.55D+00
                    CP:  1.22D+00  1.48D+00
 E= -1031.90606436343     Delta-E=       -0.000056985289 Rises=F Damp=F
 DIIS: error= 1.27D-04 at cycle   8 NSaved=   8.
 NSaved= 8 IEnMin= 8 EnMin= -1031.90606436343     IErMin= 8 ErrMin= 1.27D-04
 ErrMax= 1.27D-04  0.00D+00 EMaxC= 1.00D-01 BMatC= 2.79D-06 BMatP= 1.09D-05
 IDIUse=3 WtCom= 9.99D-01 WtEn= 1.27D-03
 Coeff-Com: -0.724D-02 0.157D-01 0.170D-01 0.342D-02-0.166D+00-0.136D+00
 Coeff-Com:  0.235D+00 0.104D+01
 Coeff-En:   0.000D+00 0.000D+00 0.000D+00 0.000D+00 0.000D+00 0.000D+00
 Coeff-En:   0.000D+00 0.100D+01
 Coeff:     -0.723D-02 0.157D-01 0.169D-01 0.341D-02-0.165D+00-0.135D+00
 Coeff:      0.235D+00 0.104D+01
 Gap=     0.236 Goal=   None    Shift=    0.000
 RMSDP=5.07D-05 MaxDP=3.19D-03 DE=-5.70D-05 OVMax= 5.92D-03

 Cycle   9  Pass 1  IDiag  1:
 RMSU=  1.64D-05    CP:  8.61D-01  1.67D+00  8.52D-01  1.04D+00  1.61D+00
                    CP:  1.27D+00  1.97D+00  1.58D+00
 E= -1031.90608739457     Delta-E=       -0.000023031145 Rises=F Damp=F
 DIIS: error= 5.86D-05 at cycle   9 NSaved=   9.
 NSaved= 9 IEnMin= 9 EnMin= -1031.90608739457     IErMin= 9 ErrMin= 5.86D-05
 ErrMax= 5.86D-05  0.00D+00 EMaxC= 1.00D-01 BMatC= 9.35D-07 BMatP= 2.79D-06
 IDIUse=1 WtCom= 1.00D+00 WtEn= 0.00D+00
 Coeff-Com: -0.102D-02 0.209D-02 0.516D-02 0.947D-02 0.856D-02-0.962D-01
 Coeff-Com: -0.271D+00 0.313D+00 0.103D+01
 Coeff:     -0.102D-02 0.209D-02 0.516D-02 0.947D-02 0.856D-02-0.962D-01
 Coeff:     -0.271D+00 0.313D+00 0.103D+01
 Gap=     0.237 Goal=   None    Shift=    0.000
 RMSDP=3.46D-05 MaxDP=2.30D-03 DE=-2.30D-05 OVMax= 3.52D-03

 Cycle  10  Pass 1  IDiag  1:
 RMSU=  9.41D-06    CP:  8.61D-01  1.67D+00  8.52D-01  1.05D+00  1.64D+00
                    CP:  1.26D+00  2.31D+00  1.98D+00  1.59D+00
 E= -1031.90609362569     Delta-E=       -0.000006231116 Rises=F Damp=F
 DIIS: error= 2.39D-05 at cycle  10 NSaved=  10.
 NSaved=10 IEnMin=10 EnMin= -1031.90609362569     IErMin=10 ErrMin= 2.39D-05
 ErrMax= 2.39D-05  0.00D+00 EMaxC= 1.00D-01 BMatC= 1.58D-07 BMatP= 9.35D-07
 IDIUse=1 WtCom= 1.00D+00 WtEn= 0.00D+00
 Coeff-Com:  0.164D-02-0.354D-02-0.267D-02 0.194D-02 0.406D-01 0.748D-02
 Coeff-Com: -0.137D+00-0.137D+00 0.302D+00 0.926D+00
 Coeff:      0.164D-02-0.354D-02-0.267D-02 0.194D-02 0.406D-01 0.748D-02
 Coeff:     -0.137D+00-0.137D+00 0.302D+00 0.926D+00
 Gap=     0.237 Goal=   None    Shift=    0.000
 RMSDP=1.27D-05 MaxDP=7.24D-04 DE=-6.23D-06 OVMax= 1.30D-03

 Cycle  11  Pass 1  IDiag  1:
 RMSU=  4.68D-06    CP:  8.61D-01  1.67D+00  8.53D-01  1.05D+00  1.64D+00
                    CP:  1.26D+00  2.40D+00  2.13D+00  1.92D+00  1.36D+00
 E= -1031.90609457715     Delta-E=       -0.000000951457 Rises=F Damp=F
 DIIS: error= 9.66D-06 at cycle  11 NSaved=  11.
 NSaved=11 IEnMin=11 EnMin= -1031.90609457715     IErMin=11 ErrMin= 9.66D-06
 ErrMax= 9.66D-06  0.00D+00 EMaxC= 1.00D-01 BMatC= 3.05D-08 BMatP= 1.58D-07
 IDIUse=1 WtCom= 1.00D+00 WtEn= 0.00D+00
 Coeff-Com:  0.594D-03-0.126D-02-0.151D-02-0.908D-03 0.791D-02 0.221D-01
 Coeff-Com:  0.292D-01-0.108D+00-0.155D+00 0.209D+00 0.998D+00
 Coeff:      0.594D-03-0.126D-02-0.151D-02-0.908D-03 0.791D-02 0.221D-01
 Coeff:      0.292D-01-0.108D+00-0.155D+00 0.209D+00 0.998D+00
 Gap=     0.237 Goal=   None    Shift=    0.000
 RMSDP=6.08D-06 MaxDP=5.82D-04 DE=-9.51D-07 OVMax= 5.18D-04

 Cycle  12  Pass 1  IDiag  1:
 RMSU=  1.88D-06    CP:  8.61D-01  1.67D+00  8.53D-01  1.05D+00  1.64D+00
                    CP:  1.25D+00  2.45D+00  2.16D+00  2.08D+00  1.51D+00
                    CP:  1.46D+00
 E= -1031.90609473959     Delta-E=       -0.000000162445 Rises=F Damp=F
 DIIS: error= 4.47D-06 at cycle  12 NSaved=  12.
 NSaved=12 IEnMin=12 EnMin= -1031.90609473959     IErMin=12 ErrMin= 4.47D-06
 ErrMax= 4.47D-06  0.00D+00 EMaxC= 1.00D-01 BMatC= 6.36D-09 BMatP= 3.05D-08
 IDIUse=1 WtCom= 1.00D+00 WtEn= 0.00D+00
 Coeff-Com: -0.673D-04 0.153D-03-0.293D-04-0.591D-03-0.460D-02 0.620D-02
 Coeff-Com:  0.360D-01-0.172D-01-0.111D+00-0.850D-01 0.375D+00 0.801D+00
 Coeff:     -0.673D-04 0.153D-03-0.293D-04-0.591D-03-0.460D-02 0.620D-02
 Coeff:      0.360D-01-0.172D-01-0.111D+00-0.850D-01 0.375D+00 0.801D+00
 Gap=     0.237 Goal=   None    Shift=    0.000
 RMSDP=1.56D-06 MaxDP=1.43D-04 DE=-1.62D-07 OVMax= 1.40D-04

 Cycle  13  Pass 1  IDiag  1:
 RMSU=  8.85D-07    CP:  8.61D-01  1.67D+00  8.53D-01  1.06D+00  1.64D+00
                    CP:  1.26D+00  2.46D+00  2.17D+00  2.11D+00  1.57D+00
                    CP:  1.52D+00  1.13D+00
 E= -1031.90609475914     Delta-E=       -0.000000019550 Rises=F Damp=F
 DIIS: error= 1.45D-06 at cycle  13 NSaved=  13.
 NSaved=13 IEnMin=13 EnMin= -1031.90609475914     IErMin=13 ErrMin= 1.45D-06
 ErrMax= 1.45D-06  0.00D+00 EMaxC= 1.00D-01 BMatC= 7.10D-10 BMatP= 6.36D-09
 IDIUse=1 WtCom= 1.00D+00 WtEn= 0.00D+00
 Coeff-Com: -0.791D-04 0.170D-03 0.190D-03-0.309D-04-0.187D-02-0.174D-02
 Coeff-Com:  0.288D-02 0.128D-01-0.748D-03-0.454D-01-0.740D-01 0.135D+00
 Coeff-Com:  0.973D+00
 Coeff:     -0.791D-04 0.170D-03 0.190D-03-0.309D-04-0.187D-02-0.174D-02
 Coeff:      0.288D-02 0.128D-01-0.748D-03-0.454D-01-0.740D-01 0.135D+00
 Coeff:      0.973D+00
 Gap=     0.237 Goal=   None    Shift=    0.000
 RMSDP=7.66D-07 MaxDP=6.12D-05 DE=-1.95D-08 OVMax= 4.21D-05

 Cycle  14  Pass 1  IDiag  1:
 RMSU=  2.62D-07    CP:  8.61D-01  1.67D+00  8.53D-01  1.06D+00  1.64D+00
                    CP:  1.26D+00  2.46D+00  2.17D+00  2.11D+00  1.58D+00
                    CP:  1.57D+00  1.24D+00  1.20D+00
 E= -1031.90609476180     Delta-E=       -0.000000002654 Rises=F Damp=F
 DIIS: error= 6.90D-07 at cycle  14 NSaved=  14.
 NSaved=14 IEnMin=14 EnMin= -1031.90609476180     IErMin=14 ErrMin= 6.90D-07
 ErrMax= 6.90D-07  0.00D+00 EMaxC= 1.00D-01 BMatC= 1.53D-10 BMatP= 7.10D-10
 IDIUse=1 WtCom= 1.00D+00 WtEn= 0.00D+00
 Coeff-Com: -0.261D-05 0.474D-05 0.407D-04 0.610D-04 0.252D-03-0.146D-02
 Coeff-Com: -0.516D-02 0.612D-02 0.182D-01 0.878D-03-0.768D-01-0.968D-01
 Coeff-Com:  0.312D+00 0.842D+00
 Coeff:     -0.261D-05 0.474D-05 0.407D-04 0.610D-04 0.252D-03-0.146D-02
 Coeff:     -0.516D-02 0.612D-02 0.182D-01 0.878D-03-0.768D-01-0.968D-01
 Coeff:      0.312D+00 0.842D+00
 Gap=     0.237 Goal=   None    Shift=    0.000
 RMSDP=2.27D-07 MaxDP=1.85D-05 DE=-2.65D-09 OVMax= 1.15D-05

 Cycle  15  Pass 1  IDiag  1:
 RMSU=  1.12D-07    CP:  8.61D-01  1.67D+00  8.53D-01  1.06D+00  1.64D+00
                    CP:  1.26D+00  2.46D+00  2.16D+00  2.11D+00  1.58D+00
                    CP:  1.57D+00  1.25D+00  1.29D+00  1.21D+00
 E= -1031.90609476233     Delta-E=       -0.000000000537 Rises=F Damp=F
 DIIS: error= 3.19D-07 at cycle  15 NSaved=  15.
 NSaved=15 IEnMin=15 EnMin= -1031.90609476233     IErMin=15 ErrMin= 3.19D-07
 ErrMax= 3.19D-07  0.00D+00 EMaxC= 1.00D-01 BMatC= 2.22D-11 BMatP= 1.53D-10
 IDIUse=1 WtCom= 1.00D+00 WtEn= 0.00D+00
 Coeff-Com:  0.636D-05-0.139D-04-0.133D-04 0.264D-04 0.278D-03 0.618D-04
 Coeff-Com: -0.911D-03-0.132D-02 0.279D-02 0.589D-02 0.435D-02-0.458D-01
 Coeff-Com: -0.128D+00 0.115D+00 0.105D+01
 Coeff:      0.636D-05-0.139D-04-0.133D-04 0.264D-04 0.278D-03 0.618D-04
 Coeff:     -0.911D-03-0.132D-02 0.279D-02 0.589D-02 0.435D-02-0.458D-01
 Coeff:     -0.128D+00 0.115D+00 0.105D+01
 Gap=     0.237 Goal=   None    Shift=    0.000
 RMSDP=1.35D-07 MaxDP=1.52D-05 DE=-5.37D-10 OVMax= 6.09D-06

 Cycle  16  Pass 1  IDiag  1:
 RMSU=  5.63D-08    CP:  8.61D-01  1.67D+00  8.53D-01  1.06D+00  1.64D+00
                    CP:  1.26D+00  2.46D+00  2.16D+00  2.11D+00  1.57D+00
                    CP:  1.57D+00  1.25D+00  1.32D+00  1.34D+00  1.28D+00
 E= -1031.90609476221     Delta-E=        0.000000000121 Rises=F Damp=F
 DIIS: error= 1.74D-07 at cycle  16 NSaved=  16.
 NSaved=16 IEnMin=15 EnMin= -1031.90609476233     IErMin=16 ErrMin= 1.74D-07
 ErrMax= 1.74D-07  0.00D+00 EMaxC= 1.00D-01 BMatC= 4.07D-12 BMatP= 2.22D-11
 IDIUse=1 WtCom= 1.00D+00 WtEn= 0.00D+00
 Coeff-Com:  0.193D-05-0.411D-05-0.897D-05 0.185D-06 0.497D-04 0.196D-03
 Coeff-Com:  0.349D-03-0.111D-02-0.135D-02 0.146D-02 0.110D-01-0.693D-04
 Coeff-Com: -0.569D-01-0.103D+00 0.227D+00 0.922D+00
 Coeff:      0.193D-05-0.411D-05-0.897D-05 0.185D-06 0.497D-04 0.196D-03
 Coeff:      0.349D-03-0.111D-02-0.135D-02 0.146D-02 0.110D-01-0.693D-04
 Coeff:     -0.569D-01-0.103D+00 0.227D+00 0.922D+00
 Gap=     0.237 Goal=   None    Shift=    0.000
 RMSDP=5.42D-08 MaxDP=5.72D-06 DE= 1.21D-10 OVMax= 2.00D-06

 Cycle  17  Pass 1  IDiag  1:
 RMSU=  2.03D-08    CP:  8.61D-01  1.67D+00  8.53D-01  1.06D+00  1.64D+00
                    CP:  1.26D+00  2.46D+00  2.16D+00  2.11D+00  1.57D+00
                    CP:  1.57D+00  1.24D+00  1.31D+00  1.39D+00  1.45D+00
                    CP:  1.06D+00
 E= -1031.90609476228     Delta-E=       -0.000000000066 Rises=F Damp=F
 DIIS: error= 5.33D-08 at cycle  17 NSaved=  17.
 NSaved=17 IEnMin=15 EnMin= -1031.90609476233     IErMin=17 ErrMin= 5.33D-08
 ErrMax= 5.33D-08  0.00D+00 EMaxC= 1.00D-01 BMatC= 1.11D-12 BMatP= 4.07D-12
 IDIUse=1 WtCom= 1.00D+00 WtEn= 0.00D+00
 Coeff-Com: -0.101D-05 0.223D-05-0.725D-06-0.773D-05-0.485D-04 0.660D-04
 Coeff-Com:  0.376D-03-0.139D-03-0.133D-02-0.106D-02 0.338D-02 0.974D-02
 Coeff-Com:  0.103D-01-0.771D-01-0.140D+00 0.367D+00 0.829D+00
 Coeff:     -0.101D-05 0.223D-05-0.725D-06-0.773D-05-0.485D-04 0.660D-04
 Coeff:      0.376D-03-0.139D-03-0.133D-02-0.106D-02 0.338D-02 0.974D-02
 Coeff:      0.103D-01-0.771D-01-0.140D+00 0.367D+00 0.829D+00
 Gap=     0.237 Goal=   None    Shift=    0.000
 RMSDP=2.45D-08 MaxDP=1.86D-06 DE=-6.64D-11 OVMax= 1.13D-06

 Cycle  18  Pass 1  IDiag  1:
 RMSU=  7.45D-09    CP:  8.61D-01  1.67D+00  8.53D-01  1.06D+00  1.64D+00
                    CP:  1.26D+00  2.46D+00  2.16D+00  2.11D+00  1.57D+00
                    CP:  1.57D+00  1.23D+00  1.32D+00  1.39D+00  1.51D+00
                    CP:  1.13D+00  1.32D+00
 E= -1031.90609476238     Delta-E=       -0.000000000099 Rises=F Damp=F
 DIIS: error= 2.41D-08 at cycle  18 NSaved=  18.
 NSaved=18 IEnMin=18 EnMin= -1031.90609476238     IErMin=18 ErrMin= 2.41D-08
 ErrMax= 2.41D-08  0.00D+00 EMaxC= 1.00D-01 BMatC= 1.16D-13 BMatP= 1.11D-12
 IDIUse=1 WtCom= 1.00D+00 WtEn= 0.00D+00
 Coeff-Com: -0.307D-06 0.650D-06 0.592D-06-0.252D-05-0.125D-04-0.148D-04
 Coeff-Com:  0.214D-04 0.154D-03-0.759D-04-0.365D-03-0.785D-03 0.215D-02
 Coeff-Com:  0.129D-01-0.755D-02-0.675D-01-0.489D-01 0.197D+00 0.913D+00
 Coeff:     -0.307D-06 0.650D-06 0.592D-06-0.252D-05-0.125D-04-0.148D-04
 Coeff:      0.214D-04 0.154D-03-0.759D-04-0.365D-03-0.785D-03 0.215D-02
 Coeff:      0.129D-01-0.755D-02-0.675D-01-0.489D-01 0.197D+00 0.913D+00
 Gap=     0.237 Goal=   None    Shift=    0.000
 RMSDP=6.55D-09 MaxDP=4.81D-07 DE=-9.87D-11 OVMax= 3.61D-07

 Error on total polarization charges =  0.02115
 SCF Done:  E(RCAM-B3LYP) =  -1031.90609476     A.U. after   18 cycles
            NFock= 18  Conv=0.66D-08     -V/T= 2.0040
 KE= 1.027774528205D+03 PE=-6.190714427372D+03 EE= 2.236712838740D+03
 Leave Link  502 at Mon Feb 17 09:46:39 2020, MaxMem=  6710886400 cpu:      5489.8
 (Enter /opt/sys/apps/gaussian09/D.01/g09/l801.exe)
 DoSCS=F DFT=T ScalE2(SS,OS)=  1.000000  1.000000
 ExpMin= 3.60D-02 ExpMax= 8.59D+03 ExpMxC= 1.30D+03 IAcc=3 IRadAn=         5 AccDes= 0.00D+00
 HarFok:  IExCor=  205 AccDes= 0.00D+00 IRadAn=         5 IDoV=-2 UseB2=F ITyADJ=14
 ICtDFT= 12500011 ScaDFX=  1.000000  1.000000  1.000000  1.000000
 Largest valence mixing into a core orbital is  4.86D-05
 Largest core mixing into a valence orbital is  1.09D-05
 Range of M.O.s used for correlation:    25   646
 NBasis=   654 NAE=    84 NBE=    84 NFC=    24 NFV=     0
 NROrb=    622 NOA=    60 NOB=    60 NVA=   562 NVB=   562

 **** Warning!!: The largest alpha MO coefficient is  0.14817035D+03

 Leave Link  801 at Mon Feb 17 09:46:40 2020, MaxMem=  6710886400 cpu:         8.2
 (Enter /opt/sys/apps/gaussian09/D.01/g09/l914.exe)
 RHF ground state
 MDV=  6710886400 DFT=T DoStab=F Mixed=T DoRPA=T DoScal=F NonHer=T
 Would need an additional        132787700000 words for in-memory AO integral storage.
 NEqPCM:  Using non-equilibrium solvation (IEInf=1, Eps=  35.6880, EpsInf=   1.8069)
 Inv3:  Mode=1 IEnd=    28219467.
 Iteration    1 A*A^-1 deviation from unit magnitude is 5.44D-15 for   3038.
 Iteration    1 A*A^-1 deviation from orthogonality  is 2.98D-15 for   3049   2909.
 Iteration    1 A^-1*A deviation from unit magnitude is 5.44D-15 for   3038.
 Iteration    1 A^-1*A deviation from orthogonality  is 1.95D-15 for   3017   2980.
 Making orbital integer symmetry assigments:
    40 initial guesses have been made.
 Convergence on wavefunction:    0.000001000000000
 Davidson Disk Diagonalization:  ConvIn= 1.00D-06 SkipCon=T Conv= 1.00D-06.
 Max sub-space:   200 roots to seek:    40 dimension of matrix:        67440
 Iteration     1 Dimension    40 NMult     0 NNew     40
 CISAX will form    40 AO SS matrices at one time.
 NMat=    40 NSing=    40 JSym2X= 0.
 FoFJK:  IHMeth= 1 ICntrl=       0 DoSepK=T KAlg= 0 I1Cent=   0 FoldK=F
 IRaf=         1 NMat=  80 IRICut=       1 DoRegI=T DoRafI=F ISym2E= 0.
 New state      3 was old state     23
 New state      4 was old state     14
 New state      5 was old state      3
 New state      6 was old state     16
 New state      7 was old state      6
 New state      8 was old state      4
 New state      9 was old state     13
 New state     10 was old state     11
 Excitation Energies [eV] at current iteration:
 Root      1 :     3.365805190171295
 Root      2 :     4.477792753880978
 Root      3 :     4.775406065235943
 Root      4 :     5.098506076038484
 Root      5 :     5.152844300666306
 Root      6 :     5.237450563204933
 Root      7 :     5.329456173960589
 Root      8 :     5.607126224756743
 Root      9 :     5.784935135107012
 Root     10 :     5.932397781583139
 Root     11 :     6.110688032864077
 Root     12 :     6.208446921216734
 Root     13 :     6.276765437603259
 Root     14 :     6.358713340901287
 Root     15 :     6.621537308379412
 Root     16 :     6.637485676717913
 Root     17 :     6.756013451011051
 Root     18 :     6.778494786245400
 Root     19 :     6.871685891669308
 Root     20 :     7.105507753987228
 Root     21 :     7.151236435214899
 Root     22 :     7.206870490675849
 Root     23 :     7.335621594089057
 Root     24 :     7.382551956762239
 Root     25 :     7.475116997491683
 Root     26 :     7.514970865593260
 Root     27 :     7.562838533242653
 Root     28 :     7.681893904300741
 Root     29 :     7.731809154268115
 Root     30 :     7.742456566885314
 Root     31 :     7.765907164299042
 Root     32 :     7.958172896633628
 Root     33 :     8.006303187025438
 Root     34 :     8.064080264552848
 Root     35 :     8.190389359777823
 Root     36 :     8.237160047168970
 Root     37 :     8.293489594603411
 Root     38 :     8.372384217082239
 Root     39 :     8.621971648136947
 Root     40 :     8.669389752471211
 Iteration     2 Dimension    60 NMult    40 NNew     20
 CISAX will form    20 AO SS matrices at one time.
 NMat=    20 NSing=    20 JSym2X= 0.
 Root      1 not converged, maximum delta is    0.044239688992267
 Root      2 not converged, maximum delta is    0.049112677841991
 Root      3 not converged, maximum delta is    0.368574586453140
 Root      4 not converged, maximum delta is    0.412429377730288
 New state      5 was old state      6
 Root      5 not converged, maximum delta is    0.265084686490364
 New state      6 was old state      5
 Root      6 not converged, maximum delta is    0.253255354008345
 Root      7 not converged, maximum delta is    0.354734157457741
 New state      8 was old state      9
 Root      8 not converged, maximum delta is    0.126522403099027
 New state      9 was old state      8
 Root      9 not converged, maximum delta is    0.043540959844271
 Root     10 not converged, maximum delta is    0.102006984822575
 Excitation Energies [eV] at current iteration:
 Root      1 :     2.807401114712335   Change is   -0.558404075458960
 Root      2 :     4.007364908630064   Change is   -0.470427845250914
 Root      3 :     4.149021006385325   Change is   -0.626385058850618
 Root      4 :     4.286127062971286   Change is   -0.812379013067198
 Root      5 :     4.669383066743466   Change is   -0.568067496461467
 Root      6 :     4.807420649056557   Change is   -0.345423651609748
 Root      7 :     4.865676671535849   Change is   -0.463779502424740
 Root      8 :     5.151137302834367   Change is   -0.633797832272645
 Root      9 :     5.347695045379524   Change is   -0.259431179377219
 Root     10 :     5.481347225719827   Change is   -0.451050555863312
 Iteration     3 Dimension    80 NMult    60 NNew     20
 CISAX will form    20 AO SS matrices at one time.
 NMat=    20 NSing=    20 JSym2X= 0.
 Root      1 not converged, maximum delta is    0.009481140514176
 Root      2 not converged, maximum delta is    0.014260435238764
 Root      3 not converged, maximum delta is    0.135269649424640
 Root      4 not converged, maximum delta is    0.141215018025694
 Root      5 not converged, maximum delta is    0.041924564149285
 Root      6 not converged, maximum delta is    0.072906180433518
 Root      7 not converged, maximum delta is    0.112811968384490
 Root      8 not converged, maximum delta is    0.109441274960560
 Root      9 not converged, maximum delta is    0.012123172352436
 Root     10 not converged, maximum delta is    0.119016065794738
 Excitation Energies [eV] at current iteration:
 Root      1 :     2.766316450802113   Change is   -0.041084663910222
 Root      2 :     3.975077330015127   Change is   -0.032287578614937
 Root      3 :     4.039619157926314   Change is   -0.109401848459011
 Root      4 :     4.235905307435906   Change is   -0.050221755535380
 Root      5 :     4.615305337234277   Change is   -0.054077729509189
 Root      6 :     4.699736711170392   Change is   -0.107683937886165
 Root      7 :     4.822039970998730   Change is   -0.043636700537118
 Root      8 :     5.046151501905895   Change is   -0.104985800928472
 Root      9 :     5.336016432827309   Change is   -0.011678612552214
 Root     10 :     5.415749887662447   Change is   -0.065597338057380
 Iteration     4 Dimension   100 NMult    80 NNew     20
 CISAX will form    20 AO SS matrices at one time.
 NMat=    20 NSing=    20 JSym2X= 0.
 Root      1 not converged, maximum delta is    0.005249281479609
 Root      2 not converged, maximum delta is    0.008322986983359
 Root      3 not converged, maximum delta is    0.007198730543885
 Root      4 not converged, maximum delta is    0.005750013899074
 Root      5 not converged, maximum delta is    0.012881986122933
 Root      6 not converged, maximum delta is    0.025471239765838
 Root      7 not converged, maximum delta is    0.027628437296173
 Root      8 not converged, maximum delta is    0.035665639811445
 Root      9 not converged, maximum delta is    0.010870854378245
 Root     10 not converged, maximum delta is    0.098946467850968
 Excitation Energies [eV] at current iteration:
 Root      1 :     2.760163362904873   Change is   -0.006153087897240
 Root      2 :     3.969293622110589   Change is   -0.005783707904538
 Root      3 :     4.032786625685654   Change is   -0.006832532240659
 Root      4 :     4.232637363403599   Change is   -0.003267944032307
 Root      5 :     4.608354699975576   Change is   -0.006950637258701
 Root      6 :     4.684231960276903   Change is   -0.015504750893490
 Root      7 :     4.811603922141646   Change is   -0.010436048857084
 Root      8 :     5.022434086366993   Change is   -0.023717415538901
 Root      9 :     5.335061510986656   Change is   -0.000954921840653
 Root     10 :     5.383916423317419   Change is   -0.031833464345028
 Iteration     5 Dimension   120 NMult   100 NNew     20
 CISAX will form    20 AO SS matrices at one time.
 NMat=    20 NSing=    20 JSym2X= 0.
 Root      1 not converged, maximum delta is    0.001100222658580
 Root      2 not converged, maximum delta is    0.002101426106873
 Root      3 not converged, maximum delta is    0.002555818537639
 Root      4 not converged, maximum delta is    0.001671387918071
 Root      5 not converged, maximum delta is    0.003699674540779
 Root      6 not converged, maximum delta is    0.004957566683330
 Root      7 not converged, maximum delta is    0.006174830235809
 Root      8 not converged, maximum delta is    0.009085625729679
 Root      9 not converged, maximum delta is    0.006799451407982
 Root     10 not converged, maximum delta is    0.049242301733228
 Excitation Energies [eV] at current iteration:
 Root      1 :     2.759719943570493   Change is   -0.000443419334380
 Root      2 :     3.968795015570111   Change is   -0.000498606540478
 Root      3 :     4.032281468057551   Change is   -0.000505157628103
 Root      4 :     4.232334915830068   Change is   -0.000302447573532
 Root      5 :     4.607540825976362   Change is   -0.000813873999214
 Root      6 :     4.682602266261179   Change is   -0.001629694015724
 Root      7 :     4.810093996579821   Change is   -0.001509925561826
 Root      8 :     5.018947260349664   Change is   -0.003486826017329
 Root      9 :     5.334902702862141   Change is   -0.000158808124516
 Root     10 :     5.373631909020565   Change is   -0.010284514296854
 Iteration     6 Dimension   140 NMult   120 NNew     20
 CISAX will form    20 AO SS matrices at one time.
 NMat=    20 NSing=    20 JSym2X= 0.
 Root      1 not converged, maximum delta is    0.000257450871030
 Root      2 not converged, maximum delta is    0.000461944814405
 Root      3 not converged, maximum delta is    0.000523719559140
 Root      4 not converged, maximum delta is    0.000507464582794
 Root      5 not converged, maximum delta is    0.000835334242745
 Root      6 not converged, maximum delta is    0.000845808591259
 Root      7 not converged, maximum delta is    0.001287172016212
 Root      8 not converged, maximum delta is    0.001868029580176
 Root      9 not converged, maximum delta is    0.001723325767613
 Root     10 not converged, maximum delta is    0.012887268566603
 Excitation Energies [eV] at current iteration:
 Root      1 :     2.759694570403817   Change is   -0.000025373166676
 Root      2 :     3.968750200750251   Change is   -0.000044814819860
 Root      3 :     4.032248024267402   Change is   -0.000033443790149
 Root      4 :     4.232310386937484   Change is   -0.000024528892584
 Root      5 :     4.607473784182409   Change is   -0.000067041793952
 Root      6 :     4.682459685209647   Change is   -0.000142581051532
 Root      7 :     4.809946179327496   Change is   -0.000147817252325
 Root      8 :     5.018571916800280   Change is   -0.000375343549384
 Root      9 :     5.334878503510733   Change is   -0.000024199351407
 Root     10 :     5.372137930456009   Change is   -0.001493978564556
 Iteration     7 Dimension   160 NMult   140 NNew     20
 CISAX will form    20 AO SS matrices at one time.
 NMat=    20 NSing=    20 JSym2X= 0.
 Root      1 not converged, maximum delta is    0.000036969959365
 Root      2 not converged, maximum delta is    0.000085696800451
 Root      3 not converged, maximum delta is    0.000076305769313
 Root      4 not converged, maximum delta is    0.000088639439437
 Root      5 not converged, maximum delta is    0.000099521692834
 Root      6 not converged, maximum delta is    0.000151019052440
 Root      7 not converged, maximum delta is    0.000265004199016
 Root      8 not converged, maximum delta is    0.000347594883788
 Root      9 not converged, maximum delta is    0.000421500464092
 Root     10 not converged, maximum delta is    0.003730733427773
 Excitation Energies [eV] at current iteration:
 Root      1 :     2.759693330063458   Change is   -0.000001240340359
 Root      2 :     3.968747637864438   Change is   -0.000002562885813
 Root      3 :     4.032245824772773   Change is   -0.000002199494630
 Root      4 :     4.232308398906444   Change is   -0.000001988031040
 Root      5 :     4.607469334153066   Change is   -0.000004450029343
 Root      6 :     4.682448853512136   Change is   -0.000010831697511
 Root      7 :     4.809933359681019   Change is   -0.000012819646477
 Root      8 :     5.018542711109002   Change is   -0.000029205691278
 Root      9 :     5.334875090787130   Change is   -0.000003412723604
 Root     10 :     5.371966267729093   Change is   -0.000171662726917
 Iteration     8 Dimension   180 NMult   160 NNew     20
 CISAX will form    20 AO SS matrices at one time.
 NMat=    20 NSing=    20 JSym2X= 0.
 Root      1 not converged, maximum delta is    0.000006178076521
 Root      2 not converged, maximum delta is    0.000014983713997
 Root      3 not converged, maximum delta is    0.000018696986709
 Root      4 not converged, maximum delta is    0.000029875564012
 Root      5 not converged, maximum delta is    0.000020696466175
 Root      6 not converged, maximum delta is    0.000058460410422
 Root      7 not converged, maximum delta is    0.000051126499790
 Root      8 not converged, maximum delta is    0.000068060311309
 Root      9 not converged, maximum delta is    0.000070568640059
 Root     10 not converged, maximum delta is    0.000809242527319
 Excitation Energies [eV] at current iteration:
 Root      1 :     2.759693276414684   Change is   -0.000000053648774
 Root      2 :     3.968747495805384   Change is   -0.000000142059054
 Root      3 :     4.032245687455538   Change is   -0.000000137317235
 Root      4 :     4.232308261999366   Change is   -0.000000136907078
 Root      5 :     4.607469081985259   Change is   -0.000000252167808
 Root      6 :     4.682448077616909   Change is   -0.000000775895227
 Root      7 :     4.809932457244648   Change is   -0.000000902436371
 Root      8 :     5.018540763045146   Change is   -0.000001948063856
 Root      9 :     5.334874731314003   Change is   -0.000000359473126
 Root     10 :     5.371947301365990   Change is   -0.000018966363102
 Iteration     9 Dimension   200 NMult   180 NNew     20
 CISAX will form    20 AO SS matrices at one time.
 NMat=    20 NSing=    20 JSym2X= 0.
 Root      1 not converged, maximum delta is    0.000001080703701
 Root      2 not converged, maximum delta is    0.000003952362296
 Root      3 not converged, maximum delta is    0.000005235706377
 Root      4 not converged, maximum delta is    0.000009096603056
 Root      5 not converged, maximum delta is    0.000006083885029
 Root      6 not converged, maximum delta is    0.000016037887267
 Root      7 not converged, maximum delta is    0.000013086480836
 Root      8 not converged, maximum delta is    0.000016689774882
 Root      9 not converged, maximum delta is    0.000017616442673
 Root     10 not converged, maximum delta is    0.000118361779814
 Excitation Energies [eV] at current iteration:
 Root      1 :     2.759693274737167   Change is   -0.000000001677517
 Root      2 :     3.968747489746767   Change is   -0.000000006058617
 Root      3 :     4.032245678224577   Change is   -0.000000009230962
 Root      4 :     4.232308251858589   Change is   -0.000000010140777
 Root      5 :     4.607469067543850   Change is   -0.000000014441409
 Root      6 :     4.682448024141443   Change is   -0.000000053475467
 Root      7 :     4.809932400116822   Change is   -0.000000057127826
 Root      8 :     5.018540626639807   Change is   -0.000000136405338
 Root      9 :     5.334874698292853   Change is   -0.000000033021151
 Root     10 :     5.371945465656875   Change is   -0.000001835709115
 Davidson failed to converge within maximum sub-space dimensions.
  Restart with updated initial guess:
 Iteration     1 Dimension    40 NMult   200 NNew     40
 CISAX will form    40 AO SS matrices at one time.
 NMat=    40 NSing=    40 JSym2X= 0.
 Excitation Energies [eV] at current iteration:
 Root      1 :     2.759693274698262
 Root      2 :     3.968747489521505
 Root      3 :     4.032245677747590
 Root      4 :     4.232308251284207
 Root      5 :     4.607469066019267
 Root      6 :     4.682448021002178
 Root      7 :     4.809932396795866
 Root      8 :     5.018540617403222
 Root      9 :     5.334874701451699
 Root     10 :     5.371945346889293
 Iteration     2 Dimension    60 NMult   240 NNew     20
 CISAX will form    20 AO SS matrices at one time.
 NMat=    20 NSing=    20 JSym2X= 0.
 Root      1 has converged.
 Root      2 has converged.
 Root      3 has converged.
 Root      4 has converged.
 Root      5 not converged, maximum delta is    0.000001167816913
 Root      6 not converged, maximum delta is    0.000001165863978
 Root      7 not converged, maximum delta is    0.000002211570318
 Root      8 not converged, maximum delta is    0.000001914916591
 Root      9 not converged, maximum delta is    0.000001499386393
 Root     10 not converged, maximum delta is    0.000006993113970
 Excitation Energies [eV] at current iteration:
 Root      1 :     2.759693274652835   Change is   -0.000000000045427
 Root      2 :     3.968747489492196   Change is   -0.000000000029310
 Root      3 :     4.032245677682758   Change is   -0.000000000064832
 Root      4 :     4.232308251218361   Change is   -0.000000000065846
 Root      5 :     4.607469065920689   Change is   -0.000000000098578
 Root      6 :     4.682448020686441   Change is   -0.000000000315737
 Root      7 :     4.809932396360194   Change is   -0.000000000435672
 Root      8 :     5.018540616206149   Change is   -0.000000001197073
 Root      9 :     5.334874701070190   Change is   -0.000000000381508
 Root     10 :     5.371945329200068   Change is   -0.000000017689225
 Iteration     3 Dimension    72 NMult   260 NNew     12
 CISAX will form    12 AO SS matrices at one time.
 NMat=    12 NSing=    12 JSym2X= 0.
 Root      1 has converged.
 Root      2 has converged.
 Root      3 has converged.
 Root      4 has converged.
 Root      5 has converged.
 Root      6 has converged.
 Root      7 has converged.
 Root      8 not converged, maximum delta is    0.000001128491185
 Root      9 not converged, maximum delta is    0.000001590224371
 Root     10 not converged, maximum delta is    0.000008298686377
 Excitation Energies [eV] at current iteration:
 Root      1 :     2.759693274672853   Change is    0.000000000020018
 Root      2 :     3.968747489476204   Change is   -0.000000000015991
 Root      3 :     4.032245677680984   Change is   -0.000000000001774
 Root      4 :     4.232308251219021   Change is    0.000000000000660
 Root      5 :     4.607469065905648   Change is   -0.000000000015041
 Root      6 :     4.682448020617708   Change is   -0.000000000068733
 Root      7 :     4.809932396291881   Change is   -0.000000000068314
 Root      8 :     5.018540616091451   Change is   -0.000000000114699
 Root      9 :     5.334874700984545   Change is   -0.000000000085646
 Root     10 :     5.371945325797665   Change is   -0.000000003402404
 Iteration     4 Dimension    78 NMult   272 NNew      6
 CISAX will form     6 AO SS matrices at one time.
 NMat=     6 NSing=     6 JSym2X= 0.
 Root      1 has converged.
 Root      2 has converged.
 Root      3 has converged.
 Root      4 has converged.
 Root      5 has converged.
 Root      6 has converged.
 Root      7 has converged.
 Root      8 has converged.
 Root      9 not converged, maximum delta is    0.000001144033319
 Root     10 not converged, maximum delta is    0.000006860287316
 Excitation Energies [eV] at current iteration:
 Root      1 :     2.759693274672793   Change is   -0.000000000000060
 Root      2 :     3.968747489466594   Change is   -0.000000000009611
 Root      3 :     4.032245677680617   Change is   -0.000000000000367
 Root      4 :     4.232308251218963   Change is   -0.000000000000058
 Root      5 :     4.607469065914336   Change is    0.000000000008689
 Root      6 :     4.682448020618691   Change is    0.000000000000983
 Root      7 :     4.809932396286600   Change is   -0.000000000005281
 Root      8 :     5.018540616072793   Change is   -0.000000000018657
 Root      9 :     5.334874700957871   Change is   -0.000000000026674
 Root     10 :     5.371945324842429   Change is   -0.000000000955235
 Iteration     5 Dimension    82 NMult   278 NNew      4
 CISAX will form     4 AO SS matrices at one time.
 NMat=     4 NSing=     4 JSym2X= 0.
 Root      1 has converged.
 Root      2 has converged.
 Root      3 has converged.
 Root      4 has converged.
 Root      5 has converged.
 Root      6 has converged.
 Root      7 has converged.
 Root      8 has converged.
 Root      9 has converged.
 Root     10 not converged, maximum delta is    0.000004196218518
 Excitation Energies [eV] at current iteration:
 Root      1 :     2.759693274665584   Change is   -0.000000000007209
 Root      2 :     3.968747489476308   Change is    0.000000000009714
 Root      3 :     4.032245677680759   Change is    0.000000000000143
 Root      4 :     4.232308251218516   Change is   -0.000000000000447
 Root      5 :     4.607469065920207   Change is    0.000000000005871
 Root      6 :     4.682448020621272   Change is    0.000000000002581
 Root      7 :     4.809932396290821   Change is    0.000000000004221
 Root      8 :     5.018540616046042   Change is   -0.000000000026750
 Root      9 :     5.334874700945390   Change is   -0.000000000012482
 Root     10 :     5.371945324482255   Change is   -0.000000000360174
 Iteration     6 Dimension    84 NMult   282 NNew      2
 CISAX will form     2 AO SS matrices at one time.
 NMat=     2 NSing=     2 JSym2X= 0.
 Root      1 has converged.
 Root      2 has converged.
 Root      3 has converged.
 Root      4 has converged.
 Root      5 has converged.
 Root      6 has converged.
 Root      7 has converged.
 Root      8 has converged.
 Root      9 has converged.
 Root     10 not converged, maximum delta is    0.000001923329017
 Excitation Energies [eV] at current iteration:
 Root      1 :     2.759693274666180   Change is    0.000000000000596
 Root      2 :     3.968747489479187   Change is    0.000000000002880
 Root      3 :     4.032245677680759   Change is    0.000000000000000
 Root      4 :     4.232308251218497   Change is   -0.000000000000019
 Root      5 :     4.607469065908949   Change is   -0.000000000011259
 Root      6 :     4.682448020612142   Change is   -0.000000000009129
 Root      7 :     4.809932396289744   Change is   -0.000000000001077
 Root      8 :     5.018540616050760   Change is    0.000000000004718
 Root      9 :     5.334874700944805   Change is   -0.000000000000585
 Root     10 :     5.371945324323806   Change is   -0.000000000158448
 Iteration     7 Dimension    86 NMult   284 NNew      2
 CISAX will form     2 AO SS matrices at one time.
 NMat=     2 NSing=     2 JSym2X= 0.
 Root      1 has converged.
 Root      2 has converged.
 Root      3 has converged.
 Root      4 has converged.
 Root      5 has converged.
 Root      6 has converged.
 Root      7 has converged.
 Root      8 has converged.
 Root      9 has converged.
 Root     10 not converged, maximum delta is    0.000001278641997
 Excitation Energies [eV] at current iteration:
 Root      1 :     2.759693274675743   Change is    0.000000000009562
 Root      2 :     3.968747489480906   Change is    0.000000000001719
 Root      3 :     4.032245677680800   Change is    0.000000000000041
 Root      4 :     4.232308251218652   Change is    0.000000000000155
 Root      5 :     4.607469065902221   Change is   -0.000000000006726
 Root      6 :     4.682448020611194   Change is   -0.000000000000948
 Root      7 :     4.809932396291504   Change is    0.000000000001761
 Root      8 :     5.018540616064258   Change is    0.000000000013497
 Root      9 :     5.334874700944942   Change is    0.000000000000138
 Root     10 :     5.371945324251591   Change is   -0.000000000072216
 Iteration     8 Dimension    88 NMult   286 NNew      2
 CISAX will form     2 AO SS matrices at one time.
 NMat=     2 NSing=     2 JSym2X= 0.
 Root      1 has converged.
 Root      2 has converged.
 Root      3 has converged.
 Root      4 has converged.
 Root      5 has converged.
 Root      6 has converged.
 Root      7 has converged.
 Root      8 has converged.
 Root      9 has converged.
 Root     10 has converged.
 Excitation Energies [eV] at current iteration:
 Root      1 :     2.759693274692216   Change is    0.000000000016473
 Root      2 :     3.968747489471565   Change is   -0.000000000009342
 Root      3 :     4.032245677680678   Change is   -0.000000000000122
 Root      4 :     4.232308251218380   Change is   -0.000000000000272
 Root      5 :     4.607469065898118   Change is   -0.000000000004103
 Root      6 :     4.682448020609492   Change is   -0.000000000001703
 Root      7 :     4.809932396281233   Change is   -0.000000000010272
 Root      8 :     5.018540616076872   Change is    0.000000000012614
 Root      9 :     5.334874700944912   Change is   -0.000000000000030
 Root     10 :     5.371945324220311   Change is   -0.000000000031279
 Convergence achieved on expansion vectors.
 ***********************************************************************
 Excited states from <AA,BB:AA,BB> singles matrix:
 ***********************************************************************
 
 1PDM for each excited state written to RWF  633
 Ground to excited state transition densities written to RWF  633
 Ground to excited state transition electric dipole moments (Au):
       state          X           Y           Z        Dip. S.      Osc.
         1        -4.0791      0.6777      0.0963     17.1080      1.1567
         2        -0.2650     -0.3100     -0.0388      0.1678      0.0163
         3        -0.0013     -0.0063      0.0368      0.0014      0.0001
         4         0.0150      0.0173     -0.1369      0.0193      0.0020
         5         0.0090     -0.7387     -0.1161      0.5592      0.0631
         6        -0.0785      0.4344      0.0577      0.1982      0.0227
         7         0.1230     -0.4387     -0.0522      0.2103      0.0248
         8         0.3272      1.2897      0.1168      1.7842      0.2194
         9         0.0243     -0.1196     -0.0810      0.0215      0.0028
        10        -0.1302      0.0605      0.0161      0.0209      0.0027
 Ground to excited state transition velocity dipole moments (Au):
       state          X           Y           Z        Dip. S.      Osc.
         1         0.4040     -0.0638     -0.0093      0.1674      1.1004
         2         0.0396      0.0399      0.0051      0.0032      0.0146
         3         0.0002      0.0009     -0.0056      0.0000      0.0001
         4        -0.0023     -0.0034      0.0274      0.0008      0.0033
         5        -0.0001      0.1327      0.0206      0.0180      0.0710
         6         0.0105     -0.0738     -0.0099      0.0057      0.0219
         7        -0.0173      0.0893      0.0106      0.0084      0.0316
         8        -0.0667     -0.2365     -0.0213      0.0609      0.2200
         9        -0.0048      0.0224      0.0169      0.0008      0.0028
        10         0.0288     -0.0095     -0.0029      0.0009      0.0031
 Ground to excited state transition magnetic dipole moments (Au):
       state          X           Y           Z
         1        -0.0124     -0.1005      0.8566
         2        -0.0141     -0.0690      0.5662
         3         0.6405     -0.5888     -0.0624
         4        -0.4018      0.0481     -0.0052
         5        -0.0016      0.0152     -0.6776
         6        -0.0076     -0.0816      0.8823
         7         0.0116     -0.0728      0.6105
         8         0.0461     -0.0954      0.7859
         9        -0.0272     -0.3292      0.2868
        10         0.0255      0.1888     -1.7114
 Ground to excited state transition velocity quadrupole moments (Au):
       state          XX          YY          ZZ          XY          XZ          YZ
         1        -0.4300     -0.2487      0.0220      0.1983      0.0302     -0.0592
         2         0.6216      0.3948      0.0216     -0.3601     -0.0290      0.0223
         3         0.0040     -0.0111      0.0128     -0.0061      0.0391      0.0592
         4         0.0002      0.0193     -0.0202      0.0079     -0.0509     -0.0879
         5         0.2098     -0.1895     -0.0065      0.0418      0.0466     -0.0279
         6         1.9150     -0.0181      0.0313      0.4906      0.0321     -0.0266
         7        -1.2367     -0.0410     -0.0171     -0.2404     -0.0205      0.0107
         8        -2.3274     -0.4311     -0.0136      2.0384      0.2366     -0.0008
         9         0.1370      0.0540     -0.0055      0.1841      0.3339     -0.0387
        10        -1.8390     -0.2683     -0.0404     -1.3789     -0.1370      0.0302
[...]
    35  C    0.008977  -0.016689  -0.004119  -0.012215   0.076613   0.177851
    36  C   -0.000648   0.000759  -0.002538   0.003028  -0.033355  -0.032189
    37  C    0.000120  -0.001494  -0.000785   0.002376  -0.000269  -0.023392
    38  H   -0.000020   0.000279   0.000028  -0.000075  -0.000051   0.001287
    39  C    0.002593  -0.008641   0.000448  -0.003716   0.017736   0.143974
    40  H    0.000002  -0.000037  -0.000008  -0.000057   0.000038  -0.000131
    41  H    0.000523  -0.002079  -0.000205   0.000141  -0.001137  -0.004914
    42  H    0.000004  -0.000012   0.000033   0.000112  -0.000046   0.000574
              19         20         21         22         23         24
     1  C   -0.178450  -0.078762   0.012809  -0.019100  -0.096620  -0.028945
     2  C    0.100749  -0.001109  -0.004834  -0.002313  -0.376208  -0.039492
     3  C    0.019467   0.120533   0.030387   0.008207  -0.158139   0.024881
     4  C   -0.042112   0.014059  -0.023516  -0.005043  -0.140236  -0.023272
     5  C   -0.076186  -0.366814  -0.073279  -0.025088  -0.042271   0.012609
     6  C   -0.086899   0.094274   0.050017   0.010392   0.470416   0.045094
     7  C    0.017082   0.007303   0.007363  -0.000542  -0.015907   0.002866
     8  C   -0.006234   0.053749   0.017652   0.002370  -0.023428   0.000953
     9  C   -0.000125   0.000074   0.001113  -0.000094  -0.000201  -0.000112
    10  C    0.000958   0.000790   0.000379   0.000023  -0.000462   0.000245
    11  C   -0.000231   0.001813   0.000512   0.000094  -0.000323   0.000030
    12  C    0.003367  -0.005498  -0.004852  -0.000039   0.000484   0.000550
    13  H   -0.014371   0.002838   0.002023  -0.002732   0.000299  -0.045525
    14  H   -0.005269  -0.004016  -0.000954   0.000037   0.007136   0.004364
    15  H   -0.012355  -0.016301  -0.055976   0.005730  -0.005330   0.000330
    16  H   -0.000070   0.000030   0.000308  -0.000018  -0.000037   0.000004
    17  O   -0.009028   0.005823   0.003599   0.000273  -0.000972   0.000064
    18  N    0.002460  -0.000787  -0.000428  -0.000040   0.000261   0.000113
    19  N    7.071514   0.074029  -0.057181  -0.072418   0.100832  -0.040246
    20  C    0.074029   6.013444   0.517482   0.502260  -0.466827  -0.056805
    21  H   -0.057181   0.517482   0.567148  -0.040115  -0.059470  -0.007935
    22  H   -0.072418   0.502260  -0.040115   0.497140   0.012812   0.004688
    23  C    0.100832  -0.466827  -0.059470   0.012812   6.203033   0.496615
    24  H   -0.040246  -0.056805  -0.007935   0.004688   0.496615   0.563537
    25  H   -0.082617   0.015264   0.005503  -0.015282   0.504632  -0.043116
    26  C    0.021434   0.133947   0.002573   0.007988  -0.225044  -0.053268
    27  H   -0.011455   0.011639   0.002617   0.002095   0.056487  -0.012421
    28  H    0.022911   0.004489   0.000494  -0.000702  -0.088840  -0.000400
    29  H    0.000340  -0.042537  -0.009665  -0.004694   0.035033   0.012541
    30  C    0.021205  -0.218230  -0.066583  -0.078945   0.166358   0.007862
    31  H   -0.007384   0.052233   0.013302  -0.000628  -0.045353  -0.009379
    32  H   -0.014190   0.053092  -0.009092   0.009868   0.006455   0.002722
    33  H    0.028087  -0.094478  -0.005254  -0.006478   0.007018   0.000506
    34  O    0.000000   0.000001  -0.000004   0.000000   0.000000   0.000000
    35  C   -0.000446   0.001348   0.000308   0.000051   0.000721  -0.000435
    36  C    0.000062   0.000078   0.000078   0.000000   0.000005   0.000020
    37  C    0.000007   0.000040   0.000027   0.000001  -0.000010  -0.000004
    38  H   -0.000001  -0.000003  -0.000002   0.000000   0.000004   0.000001
    39  C   -0.000072   0.000022  -0.000032   0.000003   0.000154  -0.000068
    40  H    0.000000   0.000000   0.000000   0.000000   0.000000   0.000000
    41  H    0.000049   0.000021   0.000039  -0.000003  -0.000221  -0.000055
    42  H   -0.000001  -0.000005  -0.000001   0.000000   0.000000   0.000000
              25         26         27         28         29         30
     1  C   -0.006260   0.127397   0.014311   0.009876  -0.008297  -0.053976
     2  C   -0.027723   0.135874  -0.030630   0.011812   0.002087  -0.019372
     3  C   -0.015340   0.047202   0.000997   0.003916  -0.003381  -0.005217
     4  C    0.011585  -0.060471  -0.007696  -0.002827  -0.001979  -0.021639
     5  C   -0.014859   0.011211  -0.032205   0.002050   0.023924   0.074848
     6  C    0.038484  -0.304004   0.004786  -0.001787  -0.033933  -0.043842
     7  C    0.000985  -0.007029   0.000627  -0.000292   0.000355  -0.000644
     8  C   -0.000301  -0.003439   0.002999  -0.000290  -0.000902  -0.006549
     9  C    0.000075  -0.000296   0.000057  -0.000025   0.000003   0.000282
    10  C    0.000009  -0.000135   0.000115  -0.000007  -0.000001  -0.000093
    11  C   -0.000046   0.000111   0.000003   0.000005  -0.000007  -0.000154
    12  C   -0.000130   0.000238  -0.000072   0.000028   0.000077  -0.000074
    13  H    0.009635  -0.001776  -0.001988  -0.002975  -0.002780  -0.002481
    14  H   -0.000137  -0.002484  -0.000040   0.000128   0.000442  -0.000159
    15  H   -0.002838   0.004161  -0.002452   0.000207   0.001807  -0.019887
    16  H    0.000010  -0.000041   0.000007  -0.000002   0.000000  -0.000004
    17  O    0.000067  -0.000660   0.000045  -0.000026  -0.000025  -0.000613
    18  N    0.000012   0.000015   0.000141   0.000006  -0.000010   0.000164
    19  N   -0.082617   0.021434  -0.011455   0.022911   0.000340   0.021205
    20  C    0.015264   0.133947   0.011639   0.004489  -0.042537  -0.218230
    21  H    0.005503   0.002573   0.002617   0.000494  -0.009665  -0.066583
    22  H   -0.015282   0.007988   0.002095  -0.000702  -0.004694  -0.078945
    23  C    0.504632  -0.225044   0.056487  -0.088840   0.035033   0.166358
    24  H   -0.043116  -0.053268  -0.012421  -0.000400   0.012541   0.007862
    25  H    0.499275  -0.088472   0.009045  -0.008028  -0.000914   0.006854
    26  C   -0.088472   5.554429   0.348805   0.432155   0.392490  -0.035486
    27  H    0.009045   0.348805   0.583923  -0.028155  -0.058592   0.001686
    28  H   -0.008028   0.432155  -0.028155   0.502966  -0.020974  -0.000621
    29  H   -0.000914   0.392490  -0.058592  -0.020974   0.548780   0.005271
    30  C    0.006854  -0.035486   0.001686  -0.000621   0.005271   5.553052
    31  H   -0.004820   0.008391   0.000576   0.000711  -0.004209   0.372977
    32  H    0.001184   0.000480   0.000747  -0.000224   0.000597   0.350201
    33  H   -0.000456  -0.000966  -0.000198  -0.000079   0.000493   0.443681
    34  O    0.000000   0.000000   0.000000   0.000000   0.000000   0.000000
    35  C    0.000029   0.000067  -0.000018   0.000001  -0.000041  -0.000119
    36  C    0.000002  -0.000006   0.000008   0.000000   0.000000   0.000011
    37  C    0.000000   0.000000   0.000002   0.000000  -0.000001  -0.000004
    38  H    0.000000   0.000000   0.000000   0.000000   0.000000   0.000000
    39  C    0.000002   0.000016  -0.000017   0.000002  -0.000003  -0.000004
    40  H    0.000000   0.000000   0.000000   0.000000   0.000000   0.000000
    41  H   -0.000005   0.000024  -0.000007  -0.000001  -0.000002  -0.000001
    42  H    0.000000   0.000000   0.000000   0.000000   0.000000   0.000000
              31         32         33         34         35         36
     1  C    0.037762  -0.028920  -0.007675  -0.000141   0.154302  -0.001888
     2  C    0.013017  -0.016883  -0.001299   0.000295   0.147830   0.004518
     3  C    0.006989   0.000331  -0.001825  -0.009715   0.735886  -0.289951
     4  C   -0.009462   0.001390   0.002683   0.021002  -0.751678  -0.020897
     5  C   -0.022491  -0.025130   0.029145  -0.001586   0.018853  -0.016955
     6  C   -0.037330   0.023091  -0.011606   0.000362  -0.005547   0.002000
     7  C   -0.001809   0.004467   0.001332   0.064771  -2.364361  -0.273284
     8  C    0.000680   0.004587  -0.000771  -0.126329  -1.257133  -1.249027
     9  C    0.000027  -0.000195  -0.000005  -0.077798  -1.484125  -2.565593
    10  C   -0.000055   0.000436   0.000030  -0.115813  -1.137585  -0.705984
    11  C    0.000033   0.000369  -0.000024   0.471734   0.131095  -0.482537
    12  C   -0.000336   0.000219   0.000352  -0.383473   0.192695   0.493676
    13  H    0.001923  -0.001920  -0.000206  -0.000004   0.008977  -0.000648
    14  H   -0.000232   0.000133  -0.000008   0.000010  -0.016689   0.000759
    15  H   -0.000855  -0.013965   0.000305   0.000107  -0.004119  -0.002538
    16  H    0.000004   0.000025   0.000024  -0.017005  -0.012215   0.003028
    17  O    0.000048   0.000701  -0.000179  -0.002950   0.076613  -0.033355
    18  N   -0.000071   0.000124   0.000021   0.000357   0.177851  -0.032189
    19  N   -0.007384  -0.014190   0.028087   0.000000  -0.000446   0.000062
    20  C    0.052233   0.053092  -0.094478   0.000001   0.001348   0.000078
    21  H    0.013302  -0.009092  -0.005254  -0.000004   0.000308   0.000078
    22  H   -0.000628   0.009868  -0.006478   0.000000   0.000051   0.000000
    23  C   -0.045353   0.006455   0.007018   0.000000   0.000721   0.000005
    24  H   -0.009379   0.002722   0.000506   0.000000  -0.000435   0.000020
    25  H   -0.004820   0.001184  -0.000456   0.000000   0.000029   0.000002
    26  C    0.008391   0.000480  -0.000966   0.000000   0.000067  -0.000006
    27  H    0.000576   0.000747  -0.000198   0.000000  -0.000018   0.000008
    28  H    0.000711  -0.000224  -0.000079   0.000000   0.000001   0.000000
    29  H   -0.004209   0.000597   0.000493   0.000000  -0.000041   0.000000
    30  C    0.372977   0.350201   0.443681   0.000000  -0.000119   0.000011
    31  H    0.556274  -0.059053  -0.026559   0.000000   0.000013  -0.000005
    32  H   -0.059053   0.590232  -0.029090   0.000000   0.000007   0.000044
    33  H   -0.026559  -0.029090   0.512350   0.000000  -0.000017   0.000005
    34  O    0.000000   0.000000   0.000000   8.411453   0.000143   0.161531
    35  C    0.000013   0.000007  -0.000017   0.000143  10.902474   2.078248
    36  C   -0.000005   0.000044   0.000005   0.161531   2.078248   9.279887
    37  C    0.000000   0.000010   0.000000   0.066798  -0.883472   0.038223
    38  H    0.000000   0.000000   0.000000  -0.000237  -0.106959  -0.015786
    39  C    0.000001  -0.000012  -0.000001  -0.017089  -0.763653  -0.703203
    40  H    0.000000   0.000000   0.000000   0.001879  -0.015687  -0.050564
    41  H    0.000004  -0.000009   0.000000   0.000180   0.493350   0.035516
    42  H    0.000000  -0.000001   0.000000  -0.002917   0.029914   0.432475
              37         38         39         40         41         42
     1  C    0.003660  -0.000026   0.011474   0.000044  -0.001028   0.000109
     2  C    0.028654  -0.002650  -0.033862   0.000342   0.020948   0.000179
     3  C   -0.078262   0.002989   0.579604   0.000147  -0.007642   0.003166
     4  C   -0.086260   0.004960   0.012145  -0.000711  -0.014273   0.000849
     5  C    0.002475  -0.000050   0.008213   0.000026  -0.000275  -0.000175
     6  C    0.000399   0.000143   0.004995   0.000008  -0.004450  -0.000099
     7  C    0.101813   0.010928  -0.517679   0.000822  -0.034077  -0.011421
     8  C   -0.183450   0.011325  -0.155778  -0.007185  -0.017750   0.004248
     9  C    0.657810   0.031952  -1.448433  -0.000529   0.041701   0.005261
    10  C   -0.405354   0.000518  -0.567328   0.007749   0.035361  -0.033223
    11  C   -0.341854  -0.008497   0.496231   0.006637  -0.010923  -0.036494
    12  C   -0.193743  -0.002548  -0.122337   0.001428  -0.000717   0.016911
    13  H    0.000120  -0.000020   0.002593   0.000002   0.000523   0.000004
    14  H   -0.001494   0.000279  -0.008641  -0.000037  -0.002079  -0.000012
    15  H   -0.000785   0.000028   0.000448  -0.000008  -0.000205   0.000033
    16  H    0.002376  -0.000075  -0.003716  -0.000057   0.000141   0.000112
    17  O   -0.000269  -0.000051   0.017736   0.000038  -0.001137  -0.000046
    18  N   -0.023392   0.001287   0.143974  -0.000131  -0.004914   0.000574
    19  N    0.000007  -0.000001  -0.000072   0.000000   0.000049  -0.000001
    20  C    0.000040  -0.000003   0.000022   0.000000   0.000021  -0.000005
    21  H    0.000027  -0.000002  -0.000032   0.000000   0.000039  -0.000001
    22  H    0.000001   0.000000   0.000003   0.000000  -0.000003   0.000000
    23  C   -0.000010   0.000004   0.000154   0.000000  -0.000221   0.000000
    24  H   -0.000004   0.000001  -0.000068   0.000000  -0.000055   0.000000
    25  H    0.000000   0.000000   0.000002   0.000000  -0.000005   0.000000
    26  C    0.000000   0.000000   0.000016   0.000000   0.000024   0.000000
    27  H    0.000002   0.000000  -0.000017   0.000000  -0.000007   0.000000
    28  H    0.000000   0.000000   0.000002   0.000000  -0.000001   0.000000
    29  H   -0.000001   0.000000  -0.000003   0.000000  -0.000002   0.000000
    30  C   -0.000004   0.000000  -0.000004   0.000000  -0.000001   0.000000
    31  H    0.000000   0.000000   0.000001   0.000000   0.000004   0.000000
    32  H    0.000010   0.000000  -0.000012   0.000000  -0.000009  -0.000001
    33  H    0.000000   0.000000  -0.000001   0.000000   0.000000   0.000000
    34  O    0.066798  -0.000237  -0.017089   0.001879   0.000180  -0.002917
    35  C   -0.883472  -0.106959  -0.763653  -0.015687   0.493350   0.029914
    36  C    0.038223  -0.015786  -0.703203  -0.050564   0.035516   0.432475
    37  C    7.217767  -0.035519   0.146928   0.437245  -0.000943  -0.050784
    38  H   -0.035519   0.450019   0.448622  -0.008077  -0.009715   0.000652
    39  C    0.146928   0.448622   9.101939  -0.032575  -0.169628  -0.004502
    40  H    0.437245  -0.008077  -0.032575   0.452616   0.001519  -0.008489
    41  H   -0.000943  -0.009715  -0.169628   0.001519   0.450600   0.000992
    42  H   -0.050784   0.000652  -0.004502  -0.008489   0.000992   0.444924
 Mulliken charges:
               1
     1  C   -0.239983
     2  C   -0.407055
     3  C    0.097367
     4  C    0.191794
     5  C   -0.246107
     6  C   -0.199613
     7  C    0.488074
     8  C    0.149550
     9  C    0.475505
    10  C    0.206573
    11  C   -0.565323
    12  C   -0.502930
    13  H    0.235112
    14  H    0.251385
    15  H    0.272680
    16  H    0.226960
    17  O   -0.090406
    18  N    0.092225
    19  N    0.232790
    20  C   -0.328505
    21  H    0.183442
    22  H    0.210242
    23  C   -0.322857
    24  H    0.180888
    25  H    0.208693
    26  C   -0.445431
    27  H    0.144226
    28  H    0.164497
    29  H    0.168706
    30  C   -0.429757
    31  H    0.165066
    32  H    0.147172
    33  H    0.161141
    34  O   -0.445564
    35  C   -0.346479
    36  C   -0.085763
    37  C   -0.418756
    38  H    0.226506
    39  C   -0.426468
    40  H    0.213546
    41  H    0.199090
    42  H    0.207764
 Sum of Mulliken charges =   0.00000
 Mulliken charges with hydrogens summed into heavy atoms:
               1
     1  C   -0.004871
     2  C   -0.155670
     3  C    0.097367
     4  C    0.191794
     5  C    0.026574
     6  C   -0.199613
     7  C    0.488074
     8  C    0.149550
     9  C    0.475505
    10  C    0.206573
    11  C   -0.565323
    12  C   -0.275970
    17  O   -0.090406
    18  N    0.092225
    19  N    0.232790
    20  C    0.065179
    23  C    0.066725
    26  C    0.031998
    30  C    0.043621
    34  O   -0.445564
    35  C   -0.147389
    36  C    0.122001
    37  C   -0.205210
    39  C   -0.199961
 Electronic spatial extent (au):  <R**2>=          11076.1767
 Charge=              0.0000 electrons
 Dipole moment (field-independent basis, Debye):
    X=             19.6707    Y=             -5.4287    Z=             -0.6580  Tot=             20.4167
 Quadrupole moment (field-independent basis, Debye-Ang):
   XX=           -112.6514   YY=           -146.5038   ZZ=           -146.5722
   XY=             28.3245   XZ=              2.8274   YZ=             -0.1050
 Traceless Quadrupole moment (field-independent basis, Debye-Ang):
   XX=             22.5911   YY=            -11.2614   ZZ=            -11.3297
   XY=             28.3245   XZ=              2.8274   YZ=             -0.1050
 Octapole moment (field-independent basis, Debye-Ang**2):
  XXX=            465.6436  YYY=            -60.0595  ZZZ=              2.3127  XYY=            120.2179
  XXY=           -151.2285  XXZ=            -17.3501  XZZ=             29.2432  YZZ=              7.7729
  YYZ=             -8.8667  XYZ=             10.7266
 Hexadecapole moment (field-independent basis, Debye-Ang**3):
 XXXX=         -11226.0760 YYYY=          -2176.7498 ZZZZ=           -321.6351 XXXY=            753.9999
 XXXZ=             76.9317 YYYX=            307.2359 YYYZ=              1.0065 ZZZX=              1.4383
 ZZZY=             -6.2532 XXYY=          -2632.5624 XXZZ=          -2300.3456 YYZZ=           -433.4151
 XXYZ=             -7.5308 YYXZ=             37.5282 ZZXY=            -13.1665
 N-N= 1.894320965664D+03 E-N=-6.190801043947D+03  KE= 1.027867527267D+03
 No NMR shielding tensors so no spin-rotation constants.
 Leave Link  601 at Mon Feb 17 10:18:34 2020, MaxMem=  6710886400 cpu:         8.1
 (Enter /opt/sys/apps/gaussian09/D.01/g09/l9999.exe)

 Test job not archived.
 1\1\GINC-S52P34\SP\RCAM-B3LYP TD-FC\6-311++G(d,p)\C20H18N2O2\SALVATORE
 \17-Feb-2020\0\\#p CAM-B3LYP/6-311++G** nosym density=current geom=all
 check EmpiricalDispersion=GD3 SCRF=(CPCM, solvent=acetonitrile) IOP(10
 /74=10) TD=(NSTATES=10,ROOT=1,NONEQ) iop(3/119=0810000000) iop(3/120=0
 810000000)\\Nil\\0,1\C,0,2.763144772,-1.6105138837,-0.2061859596\C,0,1
 .4313041603,-1.9431826301,-0.2366706708\C,0,0.4237842101,-0.9620042724
 ,-0.1143714318\C,0,0.8542567731,0.3758172878,0.0388749316\C,0,2.180944
 6226,0.7407353163,0.0725131418\C,0,3.1885114477,-0.2514782029,-0.04714
 60358\C,0,-1.4103360001,1.0540356465,0.1198726811\C,0,-1.78968602,-0.3
 385277279,-0.0291698843\C,0,-3.2200004524,-0.6443095673,-0.0524885453\
 C,0,-4.1643288457,0.4002694912,0.0637125726\C,0,-3.7291544255,1.817659
 2424,0.2105559913\C,0,-2.3089818743,2.069871856,0.2314769094\H,0,3.493
 8795801,-2.4009647305,-0.2859431006\H,0,1.1259645925,-2.976995361,-0.3
 487093975\H,0,2.4147906709,1.7898578216,0.1723677276\H,0,-1.9670647047
 ,3.0915417038,0.3397829598\O,0,-0.0835691891,1.3662037454,0.1507775966
 \N,0,-0.8960097075,-1.2913830132,-0.1417086739\N,0,4.5091446619,0.0747
 692639,-0.0086357421\C,0,4.9635605984,1.442189258,0.2710298792\H,0,4.3
 056633795,1.8984009605,1.0129562962\H,0,5.9436244408,1.3641552189,0.74
 59423607\C,0,5.5682029325,-0.9139054396,-0.2489281733\H,0,5.2457546929
 ,-1.6139046301,-1.0211776579\H,0,6.4183945793,-0.3740499754,-0.6706891
 984\C,0,5.9961583987,-1.6547307252,1.0205201575\H,0,5.1639643895,-2.21
 81420616,1.4484618611\H,0,6.8046669919,-2.3540449619,0.7922530481\H,0,
 6.3552783001,-0.9511132616,1.7757489955\C,0,5.0595105484,2.3101806616,
 -0.9863400235\H,0,5.7535266959,1.8693672301,-1.7064164656\H,0,4.086165
 0404,2.4137097271,-1.470957658\H,0,5.4231119523,3.3077698971,-0.726801
 7597\O,0,-4.5578140732,2.7384990428,0.3111055315\C,0,-3.6750438536,-1.
 9676809769,-0.1897009027\C,0,-5.5339229714,0.1003947747,0.040809735\C,
 0,-5.9694795679,-1.2091397846,-0.0944585221\H,0,-5.3700353521,-3.27078
 166,-0.3161384386\C,0,-5.0328669675,-2.2459676854,-0.2100692279\H,0,-7
 .0302475664,-1.4311041083,-0.1109931337\H,0,-2.9487354864,-2.765068661
 4,-0.2787728278\H,0,-6.2403293739,0.9161331755,0.1312330543\\Version=E
 S64L-G09RevD.01\HF=-1031.9060948\RMSD=6.554e-09\Dipole=7.7390633,-2.13
 58157,-0.2588664\Quadrupole=16.7959209,-8.3725397,-8.4233812,21.058585
 5,2.1020787,-0.0780702\PG=C01 [X(C20H18N2O2)]\\@


 IN THE WOODS WE RETURN TO REASON AND FAITH.

                                 -- EMERSON
 Job cpu time:       0 days 14 hours 18 minutes  4.6 seconds.
 File lengths (MBytes):  RWF=   1215 Int=      0 D2E=      0 Chk=    268 Scr=      1
 Normal termination of Gaussian 09 at Mon Feb 17 10:18:34 2020.
