 Entering Gaussian System, Link 0=g09
 Initial command:
 /opt/sys/apps/gaussian09/D.01/g09/l1.exe "/tmp/Gau-20436.inp" -scrdir="/tmp/"
 Entering Link 1 = /opt/sys/apps/gaussian09/D.01/g09/l1.exe PID=     20437.
  
 Copyright (c) 1988,1990,1992,1993,1995,1998,2003,2009,2013,
            Gaussian, Inc.  All Rights Reserved.
  
 This is part of the Gaussian(R) 09 program.  It is based on
 the Gaussian(R) 03 system (copyright 2003, Gaussian, Inc.),
 the Gaussian(R) 98 system (copyright 1998, Gaussian, Inc.),
 the Gaussian(R) 94 system (copyright 1995, Gaussian, Inc.),
 the Gaussian 92(TM) system (copyright 1992, Gaussian, Inc.),
 the Gaussian 90(TM) system (copyright 1990, Gaussian, Inc.),
 the Gaussian 88(TM) system (copyright 1988, Gaussian, Inc.),
 the Gaussian 86(TM) system (copyright 1986, Carnegie Mellon
 University), and the Gaussian 82(TM) system (copyright 1983,
 Carnegie Mellon University). Gaussian is a federally registered
 trademark of Gaussian, Inc.
  
 This software contains proprietary and confidential information,
 including trade secrets, belonging to Gaussian, Inc.
  
 This software is provided under written license and may be
 used, copied, transmitted, or stored only in accord with that
 written license.
  
 The following legend is applicable only to US Government
 contracts under FAR:
  
                    RESTRICTED RIGHTS LEGEND
  
 Use, reproduction and disclosure by the US Government is
 subject to restrictions as set forth in subparagraphs (a)
 and (c) of the Commercial Computer Software - Restricted
 Rights clause in FAR 52.227-19.
  
 Gaussian, Inc.
 340 Quinnipiac St., Bldg. 40, Wallingford CT 06492
  
  
 ---------------------------------------------------------------
 Warning -- This program may not be used in any manner that
 competes with the business of Gaussian, Inc. or will provide
 assistance to any competitor of Gaussian, Inc.  The licensee
 of this program is prohibited from giving any competitor of
 Gaussian, Inc. access to this program.  By using this program,
 the user acknowledges that Gaussian, Inc. is engaged in the
 business of creating and licensing software in the field of
 computational chemistry and represents and warrants to the
 licensee that it is not a competitor of Gaussian, Inc. and that
 it will not use this program in any manner prohibited above.
 ---------------------------------------------------------------
  

 Cite this work as:
 Gaussian 09, Revision D.01,
 M. J. Frisch, G. W. Trucks, H. B. Schlegel, G. E. Scuseria, 
 M. A. Robb, J. R. Cheeseman, G. Scalmani, V. Barone, B. Mennucci, 
 G. A. Petersson, H. Nakatsuji, M. Caricato, X. Li, H. P. Hratchian, 
 A. F. Izmaylov, J. Bloino, G. Zheng, J. L. Sonnenberg, M. Hada, 
 M. Ehara, K. Toyota, R. Fukuda, J. Hasegawa, M. Ishida, T. Nakajima, 
 Y. Honda, O. Kitao, H. Nakai, T. Vreven, J. A. Montgomery, Jr., 
 J. E. Peralta, F. Ogliaro, M. Bearpark, J. J. Heyd, E. Brothers, 
 K. N. Kudin, V. N. Staroverov, T. Keith, R. Kobayashi, J. Normand, 
 K. Raghavachari, A. Rendell, J. C. Burant, S. S. Iyengar, J. Tomasi, 
 M. Cossi, N. Rega, J. M. Millam, M. Klene, J. E. Knox, J. B. Cross, 
 V. Bakken, C. Adamo, J. Jaramillo, R. Gomperts, R. E. Stratmann, 
 O. Yazyev, A. J. Austin, R. Cammi, C. Pomelli, J. W. Ochterski, 
 R. L. Martin, K. Morokuma, V. G. Zakrzewski, G. A. Voth, 
 P. Salvador, J. J. Dannenberg, S. Dapprich, A. D. Daniels, 
 O. Farkas, J. B. Foresman, J. V. Ortiz, J. Cioslowski, 
 and D. J. Fox, Gaussian, Inc., Wallingford CT, 2013.
 
 ******************************************
 Gaussian 09:  ES64L-G09RevD.01 24-Apr-2013
                17-Feb-2020 
 ******************************************
 %NProcShared=24
 Will use up to   24 processors via shared memory.
 %mem=50GB
 %oldChk=checkpointCPCM_water.chk
 %Chk=checkpointCPCMES_wat.chk
 Copying data from "checkpointCPCM_water.chk" to current chk file "checkpointCPCMES_wat.chk".
 ----------------------------------------------------------------------
 #p CAM-B3LYP/6-311++G** nosym density=current geom=allcheck EmpiricalD
 ispersion=GD3 SCRF=(CPCM, solvent=water) IOP(10/74=10) TD=(NSTATES=10,
 ROOT=1,NONEQ) iop(3/119=0810000000) iop(3/120=0810000000)
 ----------------------------------------------------------------------
 1/29=7,30=1,38=1/1;
 2/12=2,15=1,40=1/2;
 3/5=4,6=6,7=1111,11=9,14=-4,16=1,25=1,30=1,70=2101,71=1,72=1,74=-40,119=810000000,120=810000000,124=31/1,2,8,3;
 4//1;
 5/5=2,38=5,53=1/2;
 8/6=1,10=2,107=1,108=10/1;
 9/8=1,15=1,41=10,42=1,70=2,73=1/14;
 10/5=4,13=10,31=1,74=10/2;
 6/7=2,8=2,9=2,10=2,22=-1/1;
 99/5=1,9=1/99;
 Leave Link    1 at Mon Feb 17 09:42:35 2020, MaxMem=  6710886400 cpu:        21.3
 (Enter /opt/sys/apps/gaussian09/D.01/g09/l101.exe)
 Structure from the checkpoint file:  "checkpointCPCMES_wat.chk"
 ---
 Nil
 ---
 Charge =  0 Multiplicity = 1
 Redundant internal coordinates found in file.
 C,0,2.763179283,-1.6105364456,-0.2067628844
 C,0,1.4315383943,-1.9432909159,-0.2372739623
 C,0,0.4238281622,-0.9620643305,-0.1147236914
 C,0,0.8543616269,0.3759331944,0.0387993474
 C,0,2.180870425,0.740933924,0.0725512527
 C,0,3.1885553239,-0.2513314163,-0.0473358671
 C,0,-1.4102976827,1.0537984162,0.1200123544
 C,0,-1.7895796045,-0.3384221104,-0.0292395027
 C,0,-3.2197468045,-0.6442299906,-0.0525208679
 C,0,-4.1641336023,0.4003973199,0.0639675051
 C,0,-3.7289282745,1.8176083815,0.2110192029
 C,0,-2.3090935209,2.069802983,0.2318845213
 H,0,3.4940009841,-2.4008649391,-0.286794015
 H,0,1.1263315433,-2.9771154839,-0.3495424941
 H,0,2.4147818536,1.7900063165,0.1726988409
 H,0,-1.9668922155,3.0913722156,0.3403455014
 O,0,-0.0837081552,1.3661015796,0.1508919081
 N,0,-0.8956046462,-1.2913502035,-0.1420499776
 N,0,4.508863495,0.0747787706,-0.0086873778
 C,0,4.9634293197,1.4423163994,0.2708072022
 H,0,4.305491022,1.8987376465,1.0125261434
 H,0,5.9434089466,1.3641580209,0.7457899555
 C,0,5.5681288597,-0.9139814366,-0.2485868606
 H,0,5.2459499928,-1.6140577781,-1.0208297498
 H,0,6.4183399242,-0.3740240546,-0.6700809686
 C,0,5.9955737972,-1.6544482418,1.0212022534
 H,0,5.1633206072,-2.2180498625,1.4487860204
 H,0,6.8043325294,-2.3535652518,0.7932956088
 H,0,6.3542055182,-0.9506173508,1.7764504366
 C,0,5.0595986497,2.3097930047,-0.9868649647
 H,0,5.7535791976,1.8685816842,-1.7067157339
 H,0,4.0862790045,2.4134313725,-1.4715214698
 H,0,5.423420681,3.3073329251,-0.7275065413
 O,0,-4.5579207663,2.73865467,0.311816188
 C,0,-3.6749080353,-1.9676024526,-0.1899544009
 C,0,-5.5337785065,0.1003625692,0.0411182411
 C,0,-5.9693641151,-1.2091148048,-0.0943574283
 H,0,-5.3698541589,-3.2707234458,-0.3164954445
 C,0,-5.0327004267,-2.2459272684,-0.2102579693
 H,0,-7.0301230125,-1.431107255,-0.1108366562
 H,0,-2.9486866823,-2.7650427713,-0.279253004
 H,0,-6.2403469313,0.9159344161,0.1317513484
 Recover connectivity data from disk.
 NAtoms=     42 NQM=       42 NQMF=       0 NMMI=      0 NMMIF=      0
                NMic=       0 NMicF=      0.
                    Isotopes and Nuclear Properties:
 (Nuclear quadrupole moments (NQMom) in fm**2, nuclear magnetic moments (NMagM)
  in nuclear magnetons)

  Atom         1           2           3           4           5           6           7           8           9          10
 IAtWgt=          12          12          12          12          12          12          12          12          12          12
 AtmWgt=  12.0000000  12.0000000  12.0000000  12.0000000  12.0000000  12.0000000  12.0000000  12.0000000  12.0000000  12.0000000
 NucSpn=           0           0           0           0           0           0           0           0           0           0
 AtZEff=  -3.6000000  -3.6000000  -3.6000000  -3.6000000  -3.6000000  -3.6000000  -3.6000000  -3.6000000  -3.6000000  -3.6000000
 NQMom=    0.0000000   0.0000000   0.0000000   0.0000000   0.0000000   0.0000000   0.0000000   0.0000000   0.0000000   0.0000000
 NMagM=    0.0000000   0.0000000   0.0000000   0.0000000   0.0000000   0.0000000   0.0000000   0.0000000   0.0000000   0.0000000
 AtZNuc=   6.0000000   6.0000000   6.0000000   6.0000000   6.0000000   6.0000000   6.0000000   6.0000000   6.0000000   6.0000000

  Atom        11          12          13          14          15          16          17          18          19          20
 IAtWgt=          12          12           1           1           1           1          16          14          14          12
 AtmWgt=  12.0000000  12.0000000   1.0078250   1.0078250   1.0078250   1.0078250  15.9949146  14.0030740  14.0030740  12.0000000
 NucSpn=           0           0           1           1           1           1           0           2           2           0
 AtZEff=  -3.6000000  -3.6000000  -1.0000000  -1.0000000  -1.0000000  -1.0000000  -5.6000000  -4.5500000  -4.5500000  -3.6000000
 NQMom=    0.0000000   0.0000000   0.0000000   0.0000000   0.0000000   0.0000000   0.0000000   2.0440000   2.0440000   0.0000000
 NMagM=    0.0000000   0.0000000   2.7928460   2.7928460   2.7928460   2.7928460   0.0000000   0.4037610   0.4037610   0.0000000
 AtZNuc=   6.0000000   6.0000000   1.0000000   1.0000000   1.0000000   1.0000000   8.0000000   7.0000000   7.0000000   6.0000000

  Atom        21          22          23          24          25          26          27          28          29          30
 IAtWgt=           1           1          12           1           1          12           1           1           1          12
 AtmWgt=   1.0078250   1.0078250  12.0000000   1.0078250   1.0078250  12.0000000   1.0078250   1.0078250   1.0078250  12.0000000
 NucSpn=           1           1           0           1           1           0           1           1           1           0
 AtZEff=  -1.0000000  -1.0000000  -3.6000000  -1.0000000  -1.0000000  -3.6000000  -1.0000000  -1.0000000  -1.0000000  -3.6000000
 NQMom=    0.0000000   0.0000000   0.0000000   0.0000000   0.0000000   0.0000000   0.0000000   0.0000000   0.0000000   0.0000000
 NMagM=    2.7928460   2.7928460   0.0000000   2.7928460   2.7928460   0.0000000   2.7928460   2.7928460   2.7928460   0.0000000
 AtZNuc=   1.0000000   1.0000000   6.0000000   1.0000000   1.0000000   6.0000000   1.0000000   1.0000000   1.0000000   6.0000000

  Atom        31          32          33          34          35          36          37          38          39          40
 IAtWgt=           1           1           1          16          12          12          12           1          12           1
 AtmWgt=   1.0078250   1.0078250   1.0078250  15.9949146  12.0000000  12.0000000  12.0000000   1.0078250  12.0000000   1.0078250
 NucSpn=           1           1           1           0           0           0           0           1           0           1
 AtZEff=  -1.0000000  -1.0000000  -1.0000000  -5.6000000  -3.6000000  -3.6000000  -3.6000000  -1.0000000  -3.6000000  -1.0000000
 NQMom=    0.0000000   0.0000000   0.0000000   0.0000000   0.0000000   0.0000000   0.0000000   0.0000000   0.0000000   0.0000000
 NMagM=    2.7928460   2.7928460   2.7928460   0.0000000   0.0000000   0.0000000   0.0000000   2.7928460   0.0000000   2.7928460
 AtZNuc=   1.0000000   1.0000000   1.0000000   8.0000000   6.0000000   6.0000000   6.0000000   1.0000000   6.0000000   1.0000000

  Atom        41          42
 IAtWgt=           1           1
 AtmWgt=   1.0078250   1.0078250
 NucSpn=           1           1
 AtZEff=  -1.0000000  -1.0000000
 NQMom=    0.0000000   0.0000000
 NMagM=    2.7928460   2.7928460
 AtZNuc=   1.0000000   1.0000000
 Leave Link  101 at Mon Feb 17 09:42:36 2020, MaxMem=  6710886400 cpu:         7.1
 (Enter /opt/sys/apps/gaussian09/D.01/g09/l202.exe)
                          Input orientation:                          
 ---------------------------------------------------------------------
 Center     Atomic      Atomic             Coordinates (Angstroms)
 Number     Number       Type             X           Y           Z
 ---------------------------------------------------------------------
      1          6           0        2.763179   -1.610536   -0.206763
      2          6           0        1.431538   -1.943291   -0.237274
      3          6           0        0.423828   -0.962064   -0.114724
      4          6           0        0.854362    0.375933    0.038799
      5          6           0        2.180870    0.740934    0.072551
      6          6           0        3.188555   -0.251331   -0.047336
      7          6           0       -1.410298    1.053798    0.120012
      8          6           0       -1.789580   -0.338422   -0.029240
      9          6           0       -3.219747   -0.644230   -0.052521
     10          6           0       -4.164134    0.400397    0.063968
     11          6           0       -3.728928    1.817608    0.211019
     12          6           0       -2.309094    2.069803    0.231885
     13          1           0        3.494001   -2.400865   -0.286794
     14          1           0        1.126332   -2.977115   -0.349542
     15          1           0        2.414782    1.790006    0.172699
     16          1           0       -1.966892    3.091372    0.340346
     17          8           0       -0.083708    1.366102    0.150892
     18          7           0       -0.895605   -1.291350   -0.142050
     19          7           0        4.508863    0.074779   -0.008687
     20          6           0        4.963429    1.442316    0.270807
     21          1           0        4.305491    1.898738    1.012526
     22          1           0        5.943409    1.364158    0.745790
     23          6           0        5.568129   -0.913981   -0.248587
     24          1           0        5.245950   -1.614058   -1.020830
     25          1           0        6.418340   -0.374024   -0.670081
     26          6           0        5.995574   -1.654448    1.021202
     27          1           0        5.163321   -2.218050    1.448786
     28          1           0        6.804333   -2.353565    0.793296
     29          1           0        6.354206   -0.950617    1.776450
     30          6           0        5.059599    2.309793   -0.986865
     31          1           0        5.753579    1.868582   -1.706716
     32          1           0        4.086279    2.413431   -1.471521
     33          1           0        5.423421    3.307333   -0.727507
     34          8           0       -4.557921    2.738655    0.311816
     35          6           0       -3.674908   -1.967602   -0.189954
     36          6           0       -5.533779    0.100363    0.041118
     37          6           0       -5.969364   -1.209115   -0.094357
     38          1           0       -5.369854   -3.270723   -0.316495
     39          6           0       -5.032700   -2.245927   -0.210258
     40          1           0       -7.030123   -1.431107   -0.110837
     41          1           0       -2.948687   -2.765043   -0.279253
     42          1           0       -6.240347    0.915934    0.131751
 ---------------------------------------------------------------------
                    Distance matrix (angstroms):
                    1          2          3          4          5
     1  C    0.000000
     2  C    1.372925   0.000000
     3  C    2.429311   1.411844   0.000000
     4  C    2.765854   2.405857   1.413919   0.000000
     5  C    2.438547   2.804024   2.454073   1.376223   0.000000
     6  C    1.433109   2.446612   2.855416   2.418541   1.419293
     7  C    4.962194   4.145628   2.735475   2.365328   3.605083
     8  C    4.730476   3.604786   2.301176   2.739591   4.115804
     9  C    6.062421   4.832820   3.657940   4.200885   5.576826
    10  C    7.218366   6.074139   4.789324   5.018618   6.354142
    11  C    7.353515   6.401230   5.007801   4.807768   6.008671
    12  C    6.282138   5.506120   4.096488   3.593595   4.685195
    13  H    1.079409   2.113191   3.394955   3.845038   3.424083
    14  H    2.137100   1.083766   2.146877   3.386401   3.887687
    15  H    3.439340   3.882313   3.408871   2.110081   1.079489
    16  H    6.691849   6.101705   4.727894   3.927342   4.774956
    17  O    4.134375   3.660427   2.397603   1.368566   2.350593
    18  N    3.673250   2.418613   1.360176   2.423824   3.693363
    19  N    2.434530   3.687111   4.215899   3.667197   2.422791
    20  C    3.793295   4.918815   5.151472   4.251522   2.876435
    21  H    4.022486   4.958103   4.951988   3.895815   2.595780
    22  H    4.457581   5.680018   6.051245   5.232096   3.872771
    23  C    2.890446   4.262744   5.146267   4.895516   3.783569
    24  H    2.612828   3.907952   4.949645   4.936489   4.016987
    25  H    3.886364   5.245771   6.048833   5.658869   4.444185
    26  C    3.458063   4.743165   5.728357   5.614234   4.603233
    27  H    2.978354   4.104204   5.146343   5.223403   4.420929
    28  H    4.228845   5.486102   6.593300   6.589505   5.609973
    29  H    4.155009   5.410466   6.224632   5.918399   4.814701
    30  C    4.609890   5.640340   5.740736   4.740867   3.445397
    31  H    4.826657   5.947240   6.241253   5.410837   4.147485
    32  H    4.420693   5.249004   5.162211   4.108255   2.968500
    33  H    5.615469   6.613963   6.602968   5.482393   4.211963
    34  O    8.531289   7.622056   6.220537   5.911835   7.032741
    35  C    6.448003   5.106724   4.220948   5.104779   6.457184
    36  C    8.475148   7.264273   6.053603   6.394082   7.741261
    37  C    8.742488   7.438602   6.397996   7.006664   8.381937
    38  H    8.301475   6.930173   6.239982   7.222548   8.559100
    39  C    7.821731   6.471376   5.606348   6.449316   7.812613
    40  H    9.795416   8.478091   7.468695   8.090296   9.465400
    41  H    5.827826   4.456839   3.827748   4.942678   6.223182
    42  H    9.357410   8.195680   6.928121   7.115837   8.423244
                    6          7          8          9         10
     6  C    0.000000
     7  C    4.783390   0.000000
     8  C    4.978930   1.450658   0.000000
     9  C    6.420337   2.487403   1.462682   0.000000
    10  C    7.382356   2.830846   2.488584   1.413040   0.000000
    11  C    7.224876   2.442895   2.909857   2.527720   1.489804
    12  C    5.974092   1.361108   2.477424   2.876830   2.501257
    13  H    2.184292   6.012681   5.677696   6.943706   8.161932
    14  H    3.431325   4.785733   3.945610   4.941556   6.290279
    15  H    2.194129   3.895640   4.716741   6.141998   6.724951
    16  H    6.156509   2.123688   3.454204   3.959635   3.485054
    17  O    3.655556   1.363205   2.418232   3.730623   4.194045
    18  N    4.215563   2.415224   1.311484   2.414211   3.686154
    19  N    1.360535   6.000959   6.312016   7.762107   8.679412
    20  C    2.473830   6.387338   6.990292   8.451189   9.189167
    21  H    2.644551   5.846430   6.575716   8.014375   8.653284
    22  H    3.290604   7.386807   7.956039   9.414582  10.176253
    23  C    2.478301   7.259921   7.383445   8.794201   9.825590
    24  H    2.652845   7.261171   7.218668   8.575909   9.684239
    25  H    3.291561   7.996905   8.232976   9.661631  10.636132
    26  C    3.315096   7.936856   7.965172   9.332500  10.409531
    27  H    3.163236   7.462110   7.352577   8.660638   9.786490
    28  H    4.266133   8.918721   8.865252  10.203891  11.332408
    29  H    3.719750   8.188344   8.364002   9.751901  10.742127
    30  C    3.308002   6.682983   7.405493   8.840069   9.477725
    31  H    3.718457   7.437872   8.036419   9.464204  10.180958
    32  H    3.152011   5.881661   6.646698   8.046171   8.630141
    33  H    4.256918   7.245441   8.112119   9.527581  10.049771
    34  O    8.311251   3.575341   4.153123   3.656140   2.384103
    35  C    7.076232   3.788588   2.496902   1.406191   2.431304
    36  C    8.729869   4.233008   3.770478   2.432679   1.402309
    37  C    9.207988   5.094293   4.270005   2.807355   2.423727
    38  H    9.079402   5.879636   4.636731   3.404572   3.882736
    39  C    8.461324   4.911117   3.766852   2.424276   2.798686
    40  H   10.286753   6.149023   5.353869   3.891214   3.405710
    41  H    6.636134   4.136375   2.700838   2.150053   3.408097
    42  H    9.502567   4.832031   4.626949   3.404716   2.140335
                   11         12         13         14         15
    11  C    0.000000
    12  C    1.442209   0.000000
    13  H    8.379382   7.343828   0.000000
    14  H    6.846689   6.132829   2.437593   0.000000
    15  H    6.143892   4.732524   4.351925   4.965711   0.000000
    16  H    2.178066   1.082806   7.770414   6.846205   4.573918
    17  O    3.673568   2.335400   5.213598   4.536316   2.534289
    18  N    4.221138   3.665396   4.529968   2.640660   4.533485
    19  N    8.423001   7.107921   2.690000   4.568562   2.712948
    20  C    8.700661   7.299647   4.152130   5.885536   2.574125
    21  H    8.074707   6.662687   4.564354   5.977979   2.071693
    22  H    9.697716   8.298544   4.608821   6.576522   3.600137
    23  C    9.700933   8.437088   2.552310   4.898600   4.175240
    24  H    9.687220   8.498165   2.056015   4.390878   4.585594
    25  H   10.418572   9.107905   3.578652   5.906283   4.628367
    26  C   10.357486   9.135676   2.919907   5.228567   5.040466
    27  H    9.843307   8.700776   2.415013   4.484133   5.024677
    28  H   11.344043  10.145733   3.482402   5.825340   6.068153
    29  H   10.572759   9.303836   3.813262   5.996433   5.059851
    30  C    8.883433   7.472655   5.013132   6.620285   2.934250
    31  H    9.674619   8.294899   5.034883   6.836236   3.832224
    32  H    8.016446   6.627251   4.993177   6.251250   2.426113
    33  H    9.320172   7.889467   6.041557   7.622475   3.487773
    34  O    1.243268   2.347547   9.571125   8.088149   7.038314
    35  C    3.806773   4.282994   7.182642   4.908817   7.164877
    36  C    2.497055   3.783343   9.373605   7.347146   8.127227
    37  C    3.778076   4.924969   9.540051   7.317093   8.908420
    38  H    5.372339   6.179822   8.906484   6.502901   9.297895
    39  C    4.288312   5.122407   8.528452   6.203846   8.479411
    40  H    4.642804   5.887440  10.570174   8.305111   9.983095
    41  H    4.674381   4.903680   6.452977   4.081138   7.051208
    42  H    2.669555   4.098316  10.292418   8.345983   8.699249
                   16         17         18         19         20
    16  H    0.000000
    17  O    2.561022   0.000000
    18  N    4.537468   2.794108   0.000000
    19  N    7.152417   4.773332   5.576053   0.000000
    20  C    7.124154   5.049137   6.478554   1.467960   0.000000
    21  H    6.420046   4.504574   6.209759   2.100253   1.091490
    22  H    8.106819   6.056406   7.389999   2.071148   1.091823
    23  C    8.553727   6.107506   6.475616   1.468755   2.487483
    24  H    8.718885   6.217679   6.212494   2.102355   3.330100
    25  H    9.129187   6.780757   7.390135   2.070016   2.510205
    26  C    9.294474   6.843890   6.998095   2.502240   3.349383
    27  H    8.958713   6.485521   6.332465   2.794567   3.850438
    28  H   10.333774   7.854534   7.828934   3.436453   4.250957
    29  H    9.361664   7.032522   7.507096   2.764677   3.150770
    30  C    7.193325   5.351509   7.010449   2.501086   1.530851
    31  H    8.080307   6.146309   7.526287   2.765926   2.171782
    32  H    6.354789   4.595424   6.349178   2.790655   2.179029
    33  H    7.470186   5.904950   7.837138   3.435480   2.164835
    34  O    2.615082   4.682775   5.464384   9.455450   9.609281
    35  C    5.365795   4.911871   2.860793   8.436723   9.298426
    36  C    4.664585   5.596196   4.845934  10.042798  10.585130
    37  C    5.890920   6.429062   5.074650  10.556940  11.255639
    38  H    7.244850   7.047123   4.895637  10.434376  11.372529
    39  C    6.179734   6.137565   4.246343   9.821800  10.665701
    40  H    6.803873   7.493034   6.136190  11.637282  12.338862
    41  H    5.970378   5.045739   2.530956   7.984538   8.978085
    42  H    4.799839   6.173104   5.789071  10.782986  11.216997
                   21         22         23         24         25
    21  H    0.000000
    22  H    1.743473   0.000000
    23  C    3.331073   2.513869   0.000000
    24  H    4.166381   3.532303   1.090993   0.000000
    25  H    3.529978   2.291621   1.091820   1.742184   0.000000
    26  C    3.934665   3.031593   1.530805   2.175652   2.163020
    27  H    4.227781   3.732955   2.178426   2.543745   3.076541
    28  H    4.937039   3.816400   2.164745   2.503293   2.491795
    29  H    3.591606   2.566944   2.172564   3.081097   2.514376
    30  C    2.176054   2.162739   3.346099   3.928420   3.024798
    31  H    3.080933   2.511028   3.146933   3.585653   2.558476
    32  H    2.546263   3.076748   3.842281   4.215285   3.721656
    33  H    2.502323   2.493375   4.250859   4.933317   3.813863
    34  O    8.930651  10.599788  10.779271  10.809160  11.451253
    35  C    8.948816  10.221950   9.303079   8.966441  10.229549
    36  C   10.049329  11.568041  11.151913  10.966746  11.982653
    37  C   10.791505  12.216454  11.542298  11.260799  12.429161
    38  H   11.049974  12.271939  11.189205  10.767355  12.144028
    39  C   10.289571  11.594038  10.684247  10.329905  11.612140
    40  H   11.867854  13.298866  12.609613  12.311114  13.501531
    41  H    8.720243   9.857504   8.715705   8.308235   9.675273
    42  H   10.628093  12.207451  11.955474  11.817966  12.749482
                   26         27         28         29         30
    26  C    0.000000
    27  H    1.092300   0.000000
    28  H    1.093068   1.772273   0.000000
    29  H    1.092884   1.769733   1.771291   0.000000
    30  C    4.541321   5.142423   5.287720   4.465668   0.000000
    31  H    4.462268   5.196745   5.018034   4.521181   1.092914
    32  H    5.138747   5.580218   5.936452   5.197080   1.092238
    33  H    5.291939   5.944220   6.022086   5.026560   1.093032
    34  O   11.453333  10.971060  12.460471  11.611649   9.714277
    35  C    9.751061   8.992357  10.532342  10.270546   9.758216
    36  C   11.703243  11.035601  12.602243  12.059855  10.870049
    37  C   12.025079  11.284321  12.855544  12.467442  11.611085
    38  H   11.557454  10.731827  12.259023  12.133297  11.847575
    39  C   11.112568  10.330152  11.879985  11.631271  11.100099
    40  H   13.076703  12.317945  13.894623  13.525272  12.685548
    41  H    9.106284   8.312038   9.820441   9.698549   9.507224
    42  H   12.534582  11.899583  13.464432  12.837905  11.440407
                   31         32         33         34         35
    31  H    0.000000
    32  H    1.769765   0.000000
    33  H    1.771401   1.772164   0.000000
    34  O   10.543175   8.832228  10.051406   0.000000
    35  C   10.291416   9.003993  10.530598   4.814597   0.000000
    36  C   11.557940  10.009189  11.442712   2.825980   2.790210
    37  C   12.226991  10.776613  12.271704   4.212129   2.418465
    38  H   12.331907  11.093338  12.646523   6.096445   2.141723
    39  C   11.640979  10.317761  11.850600   5.034286   1.386174
    40  H   13.298790  11.840876  13.338810   4.865936   3.398758
    41  H    9.961805   8.816396  10.352143   5.764519   1.082258
    42  H   12.171350  10.557092  11.937361   2.487024   3.872952
                   36         37         38         39         40
    36  C    0.000000
    37  C    1.386658   0.000000
    38  H    3.393962   2.158469   0.000000
    39  C    2.412332   1.402053   1.084051   0.000000
    40  H    2.146517   1.083864   2.486559   2.159517   0.000000
    41  H    3.872452   3.402880   2.473692   2.148803   4.297193
    42  H    1.082872   2.154157   4.299626   3.401874   2.488212
                   41         42
    41  H    0.000000
    42  H    4.955153   0.000000
 Symmetry turned off by external request.
 Stoichiometry    C20H18N2O2
 Framework group  C1[X(C20H18N2O2)]
 Deg. of freedom   120
 Full point group                 C1      NOp   1
 Rotational constants (GHZ):      0.6519727      0.1066599      0.0932578
 Leave Link  202 at Mon Feb 17 09:42:36 2020, MaxMem=  6710886400 cpu:         0.1
 (Enter /opt/sys/apps/gaussian09/D.01/g09/l301.exe)
 Standard basis: 6-311++G(d,p) (5D, 7F)
 Ernie: Thresh=  0.10000D-02 Tol=  0.10000D-05 Strict=F.
   654 basis functions,  1026 primitive gaussians,   678 cartesian basis functions
    84 alpha electrons       84 beta electrons
       nuclear repulsion energy      1894.3673469105 Hartrees.
 IExCor=20419 DFT=T Ex+Corr=CAM-B3LYP ExCW=0 ScaHFX=  1.000000
 ScaDFX=  1.000000  1.000000  1.000000  0.810000 ScalE2=  1.000000  1.000000
 IRadAn=      0 IRanWt=     -1 IRanGd=            0 ICorTp=0 IEmpDi=131
  HFx wShort=  0.000000 wLong=  0.330000 cFull=  0.190000 cShort=  0.000000 cLong=  0.810000
  DFx wShort=  0.000000 wLong=  0.330000 cFull=  0.190000 cShort=  0.000000 cLong=  0.810000
 NAtoms=   42 NActive=   42 NUniq=   42 SFac= 1.00D+00 NAtFMM=   60 NAOKFM=F Big=F
 Integral buffers will be    131072 words long.
 Raffenetti 1 integral format.
 Two-electron integral symmetry is turned off.
 R6Disp:  Grimme-D3 Dispersion energy=       -0.0278632342 Hartrees.
 Nuclear repulsion after empirical dispersion term =     1894.3394836763 Hartrees.
 ------------------------------------------------------------------------------
 Polarizable Continuum Model (PCM)
 =================================
 Model                : C-PCM.
 Atomic radii         : UFF (Universal Force Field).
 Polarization charges : Total charges.
 Charge compensation  : None.
 Solution method      : On-the-fly selection.
 Cavity type          : Scaled VdW (van der Waals Surface) (Alpha=1.100).
 Cavity algorithm     : GePol (No added spheres)
                        Default sphere list used, NSphG=   42.
                        Lebedev-Laikov grids with approx.  5.0 points / Ang**2.
                        Smoothing algorithm: Karplus/York (Gamma=1.0000).
                        Polarization charges: spherical gaussians, with
                                              point-specific exponents (IZeta= 3).
                        Self-potential: point-specific (ISelfS= 7).
                        Self-field    : sphere-specific E.n sum rule (ISelfD= 2).
 1st derivatives      : Analytical E(r).r(x)/FMM algorithm (CHGder, D1EAlg=3).
                        Cavity 1st derivative terms included.
 Solvent              : Water, Eps=  78.355300 Eps(inf)=   1.777849
 ------------------------------------------------------------------------------
 GePol: Number of generator spheres                  =      42
 GePol: Total number of spheres                      =      42
 GePol: Number of exposed spheres                    =      42 (100.00%)
 GePol: Number of points                             =    3068
 GePol: Average weight of points                     =       0.13
 GePol: Minimum weight of points                     =   0.38D-11
 GePol: Maximum weight of points                     =    0.20577
 GePol: Number of points with low weight             =     183
 GePol: Fraction of low-weight points (<1% of avg)   =       5.96%
 GePol: Cavity surface area                          =    392.414 Ang**2
 GePol: Cavity volume                                =    437.218 Ang**3
 Leave Link  301 at Mon Feb 17 09:42:36 2020, MaxMem=  6710886400 cpu:         4.6
 (Enter /opt/sys/apps/gaussian09/D.01/g09/l302.exe)
 NPDir=0 NMtPBC=     1 NCelOv=     1 NCel=       1 NClECP=     1 NCelD=      1
         NCelK=      1 NCelE2=     1 NClLst=     1 CellRange=     0.0.
 One-electron integrals computed using PRISM.
 NBasis=   654 RedAO= T EigKep=  1.10D-06  NBF=   654
 NBsUse=   646 1.00D-06 EigRej=  6.65D-07 NBFU=   646
 Precomputing XC quadrature grid using
 IXCGrd= 4 IRadAn=           0 IRanWt=          -1 IRanGd=           0 AccXCQ= 0.00D+00.
 Generated NRdTot=       0 NPtTot=           0 NUsed=           0 NTot=          32
 NSgBfM=   657   657   657   658   658 MxSgAt=    42 MxSgA2=    42.
 Leave Link  302 at Mon Feb 17 09:42:38 2020, MaxMem=  6710886400 cpu:        26.7
 (Enter /opt/sys/apps/gaussian09/D.01/g09/l308.exe)
 Leave Link  308 at Mon Feb 17 09:42:38 2020, MaxMem=  6710886400 cpu:         2.8
 (Enter /opt/sys/apps/gaussian09/D.01/g09/l303.exe)
 DipDrv:  MaxL=1.
 Leave Link  303 at Mon Feb 17 09:42:38 2020, MaxMem=  6710886400 cpu:         2.9
 (Enter /opt/sys/apps/gaussian09/D.01/g09/l401.exe)
 ExpMin= 3.60D-02 ExpMax= 8.59D+03 ExpMxC= 1.30D+03 IAcc=3 IRadAn=         5 AccDes= 0.00D+00
 Harris functional with IExCor=20419 and IRadAn=       5 diagonalized for initial guess.
 HarFok:  IExCor=20419 AccDes= 0.00D+00 IRadAn=         5 IDoV= 1 UseB2=F ITyADJ=14
 ICtDFT=  3500011 ScaDFX=  1.000000  1.000000  1.000000  1.000000
 FoFCou: FMM=F IPFlag=           0 FMFlag=      100000 FMFlg1=           0
         NFxFlg=           0 DoJE=T BraDBF=F KetDBF=T FulRan=T
         wScrn=  0.000000 ICntrl=     500 IOpCl=  0 I1Cent=   200000004 NGrid=           0
         NMat0=    1 NMatS0=      1 NMatT0=    0 NMatD0=    1 NMtDS0=    0 NMtDT0=    0
 Symmetry not used in FoFCou.
 Harris En= -981.845791786403    
 JPrj=0 DoOrth=F DoCkMO=F.
 Leave Link  401 at Mon Feb 17 09:42:42 2020, MaxMem=  6710886400 cpu:        77.0
 (Enter /opt/sys/apps/gaussian09/D.01/g09/l502.exe)
 Closed shell SCF:
 Using DIIS extrapolation, IDIIS=  1040.
 Two-electron integral symmetry not used.
 IVT=     1418026 IEndB=     1418026 NGot=  6710886400 MDV=  6709945377
 LenX=  6709945377 LenY=  6709485015
 Requested convergence on RMS density matrix=1.00D-08 within 128 cycles.
 Requested convergence on MAX density matrix=1.00D-06.
 Requested convergence on             energy=1.00D-06.
 No special actions if energy rises.
 Fock matrices will be formed incrementally for  20 cycles.

 Cycle   1  Pass 1  IDiag  1:
 FoFJK:  IHMeth= 1 ICntrl=       0 DoSepK=T KAlg= 0 I1Cent=   0 FoldK=F
 IRaf=         1 NMat=   1 IRICut=       1 DoRegI=T DoRafI=F ISym2E= 0.
 FoFCou: FMM=F IPFlag=           0 FMFlag=      100000 FMFlg1=           0
         NFxFlg=           0 DoJE=T BraDBF=F KetDBF=F FulRan=T
         wScrn=  0.000000 ICntrl=     500 IOpCl=  0 I1Cent=           0 NGrid=           0
         NMat0=    1 NMatS0=      1 NMatT0=    0 NMatD0=    1 NMtDS0=    0 NMtDT0=    0
 Symmetry not used in FoFCou.
 Inv3:  Mode=1 IEnd=    28237872.
 Iteration    1 A*A^-1 deviation from unit magnitude is 6.99D-15 for   3062.
 Iteration    1 A*A^-1 deviation from orthogonality  is 2.61D-15 for   3056   2935.
 Iteration    1 A^-1*A deviation from unit magnitude is 7.11D-15 for   3062.
 Iteration    1 A^-1*A deviation from orthogonality  is 1.80D-15 for   2839   1249.
 E= -1031.50241765007    
 DIIS: error= 4.31D-02 at cycle   1 NSaved=   1.
 NSaved= 1 IEnMin= 1 EnMin= -1031.50241765007     IErMin= 1 ErrMin= 4.31D-02
 ErrMax= 4.31D-02  0.00D+00 EMaxC= 1.00D-01 BMatC= 1.88D+00 BMatP= 1.88D+00
 IDIUse=3 WtCom= 5.69D-01 WtEn= 4.31D-01
 Coeff-Com:  0.100D+01
 Coeff-En:   0.100D+01
 Coeff:      0.100D+01
 Gap=     0.235 Goal=   None    Shift=    0.000
 GapD=    0.235 DampG=1.000 DampE=0.500 DampFc=0.5000 IDamp=-1.
 Damping current iteration by 5.00D-01
 RMSDP=1.12D-02 MaxDP=1.18D+00              OVMax= 1.78D-01

 Cycle   2  Pass 1  IDiag  1:
 RMSU=  5.58D-03    CP:  9.92D-01
 E= -1031.69336854862     Delta-E=       -0.190950898542 Rises=F Damp=T
 DIIS: error= 1.97D-02 at cycle   2 NSaved=   2.
 NSaved= 2 IEnMin= 2 EnMin= -1031.69336854862     IErMin= 2 ErrMin= 1.97D-02
 ErrMax= 1.97D-02  0.00D+00 EMaxC= 1.00D-01 BMatC= 3.70D-01 BMatP= 1.88D+00
 IDIUse=3 WtCom= 8.03D-01 WtEn= 1.97D-01
 Coeff-Com: -0.493D+00 0.149D+01
 Coeff-En:   0.000D+00 0.100D+01
 Coeff:     -0.396D+00 0.140D+01
 Gap=     0.257 Goal=   None    Shift=    0.000
 RMSDP=6.18D-03 MaxDP=6.65D-01 DE=-1.91D-01 OVMax= 1.73D-01

 Cycle   3  Pass 1  IDiag  1:
 RMSU=  4.66D-03    CP:  9.01D-01  1.41D+00
 E= -1031.83447356371     Delta-E=       -0.141105015097 Rises=F Damp=F
 DIIS: error= 1.68D-02 at cycle   3 NSaved=   3.
 NSaved= 3 IEnMin= 3 EnMin= -1031.83447356371     IErMin= 3 ErrMin= 1.68D-02
 ErrMax= 1.68D-02  0.00D+00 EMaxC= 1.00D-01 BMatC= 9.61D-02 BMatP= 3.70D-01
 IDIUse=3 WtCom= 8.32D-01 WtEn= 1.68D-01
 Coeff-Com: -0.312D+00 0.677D+00 0.636D+00
 Coeff-En:   0.000D+00 0.000D+00 0.100D+01
 Coeff:     -0.260D+00 0.563D+00 0.697D+00
 Gap=     0.234 Goal=   None    Shift=    0.000
 RMSDP=2.67D-03 MaxDP=2.20D-01 DE=-1.41D-01 OVMax= 6.57D-02

 Cycle   4  Pass 1  IDiag  1:
 RMSU=  1.71D-03    CP:  8.69D-01  1.65D+00  7.74D-01
 E= -1031.90012986864     Delta-E=       -0.065656304923 Rises=F Damp=F
 DIIS: error= 5.23D-03 at cycle   4 NSaved=   4.
 NSaved= 4 IEnMin= 4 EnMin= -1031.90012986864     IErMin= 4 ErrMin= 5.23D-03
 ErrMax= 5.23D-03  0.00D+00 EMaxC= 1.00D-01 BMatC= 8.11D-03 BMatP= 9.61D-02
 IDIUse=3 WtCom= 9.48D-01 WtEn= 5.23D-02
 Coeff-Com: -0.103D+00 0.221D+00 0.345D+00 0.538D+00
 Coeff-En:   0.000D+00 0.000D+00 0.000D+00 0.100D+01
 Coeff:     -0.980D-01 0.209D+00 0.327D+00 0.562D+00
 Gap=     0.231 Goal=   None    Shift=    0.000
 RMSDP=5.32D-04 MaxDP=4.51D-02 DE=-6.57D-02 OVMax= 1.23D-02

 Cycle   5  Pass 1  IDiag  1:
 RMSU=  3.48D-04    CP:  8.71D-01  1.65D+00  8.23D-01  8.12D-01
 E= -1031.90576344973     Delta-E=       -0.005633581092 Rises=F Damp=F
 DIIS: error= 5.51D-04 at cycle   5 NSaved=   5.
 NSaved= 5 IEnMin= 5 EnMin= -1031.90576344973     IErMin= 5 ErrMin= 5.51D-04
 ErrMax= 5.51D-04  0.00D+00 EMaxC= 1.00D-01 BMatC= 1.27D-04 BMatP= 8.11D-03
 IDIUse=3 WtCom= 9.94D-01 WtEn= 5.51D-03
 Coeff-Com:  0.233D-01-0.514D-01-0.230D-01 0.987D-01 0.952D+00
 Coeff-En:   0.000D+00 0.000D+00 0.000D+00 0.000D+00 0.100D+01
 Coeff:      0.231D-01-0.512D-01-0.229D-01 0.982D-01 0.953D+00
 Gap=     0.234 Goal=   None    Shift=    0.000
 RMSDP=4.91D-04 MaxDP=4.64D-02 DE=-5.63D-03 OVMax= 1.40D-02

 Cycle   6  Pass 1  IDiag  1:
 RMSU=  1.63D-04    CP:  8.61D-01  1.66D+00  8.46D-01  9.49D-01  1.28D+00
 E= -1031.90614563354     Delta-E=       -0.000382183817 Rises=F Damp=F
 DIIS: error= 3.56D-04 at cycle   6 NSaved=   6.
 NSaved= 6 IEnMin= 6 EnMin= -1031.90614563354     IErMin= 6 ErrMin= 3.56D-04
 ErrMax= 3.56D-04  0.00D+00 EMaxC= 1.00D-01 BMatC= 3.91D-05 BMatP= 1.27D-04
 IDIUse=3 WtCom= 9.96D-01 WtEn= 3.56D-03
 Coeff-Com:  0.227D-01-0.488D-01-0.530D-01-0.375D-01 0.370D+00 0.747D+00
 Coeff-En:   0.000D+00 0.000D+00 0.000D+00 0.000D+00 0.000D+00 0.100D+01
 Coeff:      0.226D-01-0.487D-01-0.528D-01-0.373D-01 0.368D+00 0.748D+00
 Gap=     0.235 Goal=   None    Shift=    0.000
 RMSDP=1.40D-04 MaxDP=1.29D-02 DE=-3.82D-04 OVMax= 8.60D-03

 Cycle   7  Pass 1  IDiag  1:
 RMSU=  6.05D-05    CP:  8.60D-01  1.66D+00  8.49D-01  1.00D+00  1.43D+00
                    CP:  1.03D+00
 E= -1031.90626592410     Delta-E=       -0.000120290551 Rises=F Damp=F
 DIIS: error= 2.02D-04 at cycle   7 NSaved=   7.
 NSaved= 7 IEnMin= 7 EnMin= -1031.90626592410     IErMin= 7 ErrMin= 2.02D-04
 ErrMax= 2.02D-04  0.00D+00 EMaxC= 1.00D-01 BMatC= 1.09D-05 BMatP= 3.91D-05
 IDIUse=3 WtCom= 9.98D-01 WtEn= 2.02D-03
 Coeff-Com:  0.463D-03-0.610D-03-0.698D-02-0.327D-01-0.141D+00 0.249D+00
 Coeff-Com:  0.932D+00
 Coeff-En:   0.000D+00 0.000D+00 0.000D+00 0.000D+00 0.000D+00 0.000D+00
 Coeff-En:   0.100D+01
 Coeff:      0.462D-03-0.608D-03-0.697D-02-0.327D-01-0.140D+00 0.248D+00
 Coeff:      0.932D+00
 Gap=     0.236 Goal=   None    Shift=    0.000
 RMSDP=8.78D-05 MaxDP=5.39D-03 DE=-1.20D-04 OVMax= 7.52D-03

 Cycle   8  Pass 1  IDiag  1:
 RMSU=  3.41D-05    CP:  8.59D-01  1.67D+00  8.51D-01  1.03D+00  1.55D+00
                    CP:  1.22D+00  1.48D+00
 E= -1031.90632305592     Delta-E=       -0.000057131824 Rises=F Damp=F
 DIIS: error= 1.28D-04 at cycle   8 NSaved=   8.
 NSaved= 8 IEnMin= 8 EnMin= -1031.90632305592     IErMin= 8 ErrMin= 1.28D-04
 ErrMax= 1.28D-04  0.00D+00 EMaxC= 1.00D-01 BMatC= 2.79D-06 BMatP= 1.09D-05
 IDIUse=3 WtCom= 9.99D-01 WtEn= 1.28D-03
 Coeff-Com: -0.725D-02 0.157D-01 0.170D-01 0.359D-02-0.166D+00-0.137D+00
 Coeff-Com:  0.230D+00 0.104D+01
 Coeff-En:   0.000D+00 0.000D+00 0.000D+00 0.000D+00 0.000D+00 0.000D+00
 Coeff-En:   0.000D+00 0.100D+01
 Coeff:     -0.724D-02 0.157D-01 0.170D-01 0.359D-02-0.166D+00-0.137D+00
 Coeff:      0.230D+00 0.104D+01
 Gap=     0.236 Goal=   None    Shift=    0.000
 RMSDP=5.15D-05 MaxDP=3.26D-03 DE=-5.71D-05 OVMax= 6.00D-03

 Cycle   9  Pass 1  IDiag  1:
 RMSU=  1.64D-05    CP:  8.60D-01  1.67D+00  8.52D-01  1.04D+00  1.61D+00
                    CP:  1.27D+00  1.99D+00  1.59D+00
 E= -1031.90634655779     Delta-E=       -0.000023501872 Rises=F Damp=F
 DIIS: error= 5.94D-05 at cycle   9 NSaved=   9.
 NSaved= 9 IEnMin= 9 EnMin= -1031.90634655779     IErMin= 9 ErrMin= 5.94D-05
 ErrMax= 5.94D-05  0.00D+00 EMaxC= 1.00D-01 BMatC= 9.48D-07 BMatP= 2.79D-06
 IDIUse=1 WtCom= 1.00D+00 WtEn= 0.00D+00
 Coeff-Com: -0.999D-03 0.205D-02 0.515D-02 0.958D-02 0.936D-02-0.966D-01
 Coeff-Com: -0.277D+00 0.313D+00 0.104D+01
 Coeff:     -0.999D-03 0.205D-02 0.515D-02 0.958D-02 0.936D-02-0.966D-01
 Coeff:     -0.277D+00 0.313D+00 0.104D+01
 Gap=     0.236 Goal=   None    Shift=    0.000
 RMSDP=3.55D-05 MaxDP=2.36D-03 DE=-2.35D-05 OVMax= 3.60D-03

 Cycle  10  Pass 1  IDiag  1:
 RMSU=  9.48D-06    CP:  8.60D-01  1.67D+00  8.52D-01  1.05D+00  1.64D+00
                    CP:  1.26D+00  2.34D+00  2.01D+00  1.59D+00
 E= -1031.90635301249     Delta-E=       -0.000006454694 Rises=F Damp=F
 DIIS: error= 2.43D-05 at cycle  10 NSaved=  10.
 NSaved=10 IEnMin=10 EnMin= -1031.90635301249     IErMin=10 ErrMin= 2.43D-05
 ErrMax= 2.43D-05  0.00D+00 EMaxC= 1.00D-01 BMatC= 1.62D-07 BMatP= 9.48D-07
 IDIUse=1 WtCom= 1.00D+00 WtEn= 0.00D+00
 Coeff-Com:  0.166D-02-0.360D-02-0.272D-02 0.193D-02 0.412D-01 0.815D-02
 Coeff-Com: -0.138D+00-0.140D+00 0.303D+00 0.928D+00
 Coeff:      0.166D-02-0.360D-02-0.272D-02 0.193D-02 0.412D-01 0.815D-02
 Coeff:     -0.138D+00-0.140D+00 0.303D+00 0.928D+00
 Gap=     0.236 Goal=   None    Shift=    0.000
 RMSDP=1.31D-05 MaxDP=7.64D-04 DE=-6.45D-06 OVMax= 1.34D-03

 Cycle  11  Pass 1  IDiag  1:
 RMSU=  4.72D-06    CP:  8.60D-01  1.67D+00  8.53D-01  1.05D+00  1.64D+00
                    CP:  1.25D+00  2.44D+00  2.16D+00  1.93D+00  1.37D+00
 E= -1031.90635400558     Delta-E=       -0.000000993090 Rises=F Damp=F
 DIIS: error= 9.89D-06 at cycle  11 NSaved=  11.
 NSaved=11 IEnMin=11 EnMin= -1031.90635400558     IErMin=11 ErrMin= 9.89D-06
 ErrMax= 9.89D-06  0.00D+00 EMaxC= 1.00D-01 BMatC= 3.13D-08 BMatP= 1.62D-07
 IDIUse=1 WtCom= 1.00D+00 WtEn= 0.00D+00
 Coeff-Com:  0.599D-03-0.127D-02-0.152D-02-0.939D-03 0.791D-02 0.226D-01
 Coeff-Com:  0.303D-01-0.110D+00-0.157D+00 0.210D+00 0.999D+00
 Coeff:      0.599D-03-0.127D-02-0.152D-02-0.939D-03 0.791D-02 0.226D-01
 Coeff:      0.303D-01-0.110D+00-0.157D+00 0.210D+00 0.999D+00
 Gap=     0.236 Goal=   None    Shift=    0.000
 RMSDP=6.21D-06 MaxDP=5.84D-04 DE=-9.93D-07 OVMax= 5.33D-04

 Cycle  12  Pass 1  IDiag  1:
 RMSU=  1.90D-06    CP:  8.60D-01  1.67D+00  8.53D-01  1.05D+00  1.64D+00
                    CP:  1.25D+00  2.48D+00  2.19D+00  2.09D+00  1.52D+00
                    CP:  1.46D+00
 E= -1031.90635417421     Delta-E=       -0.000000168630 Rises=F Damp=F
 DIIS: error= 4.53D-06 at cycle  12 NSaved=  12.
 NSaved=12 IEnMin=12 EnMin= -1031.90635417421     IErMin=12 ErrMin= 4.53D-06
 ErrMax= 4.53D-06  0.00D+00 EMaxC= 1.00D-01 BMatC= 6.52D-09 BMatP= 3.13D-08
 IDIUse=1 WtCom= 1.00D+00 WtEn= 0.00D+00
 Coeff-Com: -0.705D-04 0.160D-03-0.243D-04-0.598D-03-0.472D-02 0.624D-02
 Coeff-Com:  0.367D-01-0.171D-01-0.112D+00-0.851D-01 0.375D+00 0.801D+00
 Coeff:     -0.705D-04 0.160D-03-0.243D-04-0.598D-03-0.472D-02 0.624D-02
 Coeff:      0.367D-01-0.171D-01-0.112D+00-0.851D-01 0.375D+00 0.801D+00
 Gap=     0.236 Goal=   None    Shift=    0.000
 RMSDP=1.60D-06 MaxDP=1.47D-04 DE=-1.69D-07 OVMax= 1.44D-04

 Cycle  13  Pass 1  IDiag  1:
 RMSU=  8.96D-07    CP:  8.60D-01  1.67D+00  8.53D-01  1.05D+00  1.64D+00
                    CP:  1.25D+00  2.49D+00  2.20D+00  2.13D+00  1.58D+00
                    CP:  1.52D+00  1.13D+00
 E= -1031.90635419423     Delta-E=       -0.000000020020 Rises=F Damp=F
 DIIS: error= 1.45D-06 at cycle  13 NSaved=  13.
 NSaved=13 IEnMin=13 EnMin= -1031.90635419423     IErMin=13 ErrMin= 1.45D-06
 ErrMax= 1.45D-06  0.00D+00 EMaxC= 1.00D-01 BMatC= 7.26D-10 BMatP= 6.52D-09
 IDIUse=1 WtCom= 1.00D+00 WtEn= 0.00D+00
 Coeff-Com: -0.795D-04 0.171D-03 0.192D-03-0.286D-04-0.188D-02-0.179D-02
 Coeff-Com:  0.277D-02 0.130D-01-0.441D-03-0.453D-01-0.745D-01 0.134D+00
 Coeff-Com:  0.974D+00
 Coeff:     -0.795D-04 0.171D-03 0.192D-03-0.286D-04-0.188D-02-0.179D-02
 Coeff:      0.277D-02 0.130D-01-0.441D-03-0.453D-01-0.745D-01 0.134D+00
 Coeff:      0.974D+00
 Gap=     0.236 Goal=   None    Shift=    0.000
 RMSDP=7.75D-07 MaxDP=6.19D-05 DE=-2.00D-08 OVMax= 4.24D-05

 Cycle  14  Pass 1  IDiag  1:
 RMSU=  2.66D-07    CP:  8.60D-01  1.67D+00  8.53D-01  1.05D+00  1.64D+00
                    CP:  1.25D+00  2.49D+00  2.19D+00  2.12D+00  1.58D+00
                    CP:  1.57D+00  1.25D+00  1.19D+00
 E= -1031.90635419682     Delta-E=       -0.000000002593 Rises=F Damp=F
 DIIS: error= 6.92D-07 at cycle  14 NSaved=  14.
 NSaved=14 IEnMin=14 EnMin= -1031.90635419682     IErMin=14 ErrMin= 6.92D-07
 ErrMax= 6.92D-07  0.00D+00 EMaxC= 1.00D-01 BMatC= 1.55D-10 BMatP= 7.26D-10
 IDIUse=1 WtCom= 1.00D+00 WtEn= 0.00D+00
 Coeff-Com: -0.236D-05 0.418D-05 0.407D-04 0.626D-04 0.263D-03-0.148D-02
 Coeff-Com: -0.528D-02 0.615D-02 0.184D-01 0.826D-03-0.769D-01-0.964D-01
 Coeff-Com:  0.312D+00 0.843D+00
 Coeff:     -0.236D-05 0.418D-05 0.407D-04 0.626D-04 0.263D-03-0.148D-02
 Coeff:     -0.528D-02 0.615D-02 0.184D-01 0.826D-03-0.769D-01-0.964D-01
 Coeff:      0.312D+00 0.843D+00
 Gap=     0.236 Goal=   None    Shift=    0.000
 RMSDP=2.27D-07 MaxDP=1.84D-05 DE=-2.59D-09 OVMax= 1.18D-05

 Cycle  15  Pass 1  IDiag  1:
 RMSU=  1.13D-07    CP:  8.60D-01  1.67D+00  8.53D-01  1.05D+00  1.64D+00
                    CP:  1.25D+00  2.49D+00  2.19D+00  2.12D+00  1.58D+00
                    CP:  1.57D+00  1.25D+00  1.29D+00  1.21D+00
 E= -1031.90635419732     Delta-E=       -0.000000000499 Rises=F Damp=F
 DIIS: error= 3.21D-07 at cycle  15 NSaved=  15.
 NSaved=15 IEnMin=15 EnMin= -1031.90635419732     IErMin=15 ErrMin= 3.21D-07
 ErrMax= 3.21D-07  0.00D+00 EMaxC= 1.00D-01 BMatC= 2.26D-11 BMatP= 1.55D-10
 IDIUse=1 WtCom= 1.00D+00 WtEn= 0.00D+00
 Coeff-Com:  0.649D-05-0.141D-04-0.137D-04 0.265D-04 0.282D-03 0.714D-04
 Coeff-Com: -0.894D-03-0.137D-02 0.274D-02 0.589D-02 0.462D-02-0.454D-01
 Coeff-Com: -0.129D+00 0.113D+00 0.105D+01
 Coeff:      0.649D-05-0.141D-04-0.137D-04 0.265D-04 0.282D-03 0.714D-04
 Coeff:     -0.894D-03-0.137D-02 0.274D-02 0.589D-02 0.462D-02-0.454D-01
 Coeff:     -0.129D+00 0.113D+00 0.105D+01
 Gap=     0.236 Goal=   None    Shift=    0.000
 RMSDP=1.37D-07 MaxDP=1.56D-05 DE=-4.99D-10 OVMax= 6.13D-06

 Cycle  16  Pass 1  IDiag  1:
 RMSU=  5.67D-08    CP:  8.60D-01  1.67D+00  8.53D-01  1.05D+00  1.64D+00
                    CP:  1.25D+00  2.49D+00  2.19D+00  2.12D+00  1.58D+00
                    CP:  1.57D+00  1.25D+00  1.31D+00  1.34D+00  1.28D+00
 E= -1031.90635419745     Delta-E=       -0.000000000131 Rises=F Damp=F
 DIIS: error= 1.74D-07 at cycle  16 NSaved=  16.
 NSaved=16 IEnMin=16 EnMin= -1031.90635419745     IErMin=16 ErrMin= 1.74D-07
 ErrMax= 1.74D-07  0.00D+00 EMaxC= 1.00D-01 BMatC= 4.07D-12 BMatP= 2.26D-11
 IDIUse=1 WtCom= 1.00D+00 WtEn= 0.00D+00
 Coeff-Com:  0.186D-05-0.397D-05-0.895D-05-0.282D-06 0.466D-04 0.199D-03
 Coeff-Com:  0.371D-03-0.112D-02-0.140D-02 0.140D-02 0.110D-01 0.314D-03
 Coeff-Com: -0.555D-01-0.104D+00 0.218D+00 0.931D+00
 Coeff:      0.186D-05-0.397D-05-0.895D-05-0.282D-06 0.466D-04 0.199D-03
 Coeff:      0.371D-03-0.112D-02-0.140D-02 0.140D-02 0.110D-01 0.314D-03
 Coeff:     -0.555D-01-0.104D+00 0.218D+00 0.931D+00
 Gap=     0.236 Goal=   None    Shift=    0.000
 RMSDP=5.48D-08 MaxDP=5.73D-06 DE=-1.31D-10 OVMax= 2.04D-06

 Cycle  17  Pass 1  IDiag  1:
 RMSU=  2.07D-08    CP:  8.60D-01  1.67D+00  8.53D-01  1.05D+00  1.64D+00
                    CP:  1.25D+00  2.49D+00  2.19D+00  2.12D+00  1.58D+00
                    CP:  1.57D+00  1.24D+00  1.31D+00  1.38D+00  1.46D+00
                    CP:  1.06D+00
 E= -1031.90635419743     Delta-E=        0.000000000015 Rises=F Damp=F
 DIIS: error= 5.36D-08 at cycle  17 NSaved=  17.
 NSaved=17 IEnMin=16 EnMin= -1031.90635419745     IErMin=17 ErrMin= 5.36D-08
 ErrMax= 5.36D-08  0.00D+00 EMaxC= 1.00D-01 BMatC= 1.12D-12 BMatP= 4.07D-12
 IDIUse=1 WtCom= 1.00D+00 WtEn= 0.00D+00
 Coeff-Com: -0.104D-05 0.230D-05-0.663D-06-0.787D-05-0.497D-04 0.653D-04
 Coeff-Com:  0.381D-03-0.130D-03-0.133D-02-0.106D-02 0.334D-02 0.971D-02
 Coeff-Com:  0.107D-01-0.770D-01-0.141D+00 0.370D+00 0.827D+00
 Coeff:     -0.104D-05 0.230D-05-0.663D-06-0.787D-05-0.497D-04 0.653D-04
 Coeff:      0.381D-03-0.130D-03-0.133D-02-0.106D-02 0.334D-02 0.971D-02
 Coeff:      0.107D-01-0.770D-01-0.141D+00 0.370D+00 0.827D+00
 Gap=     0.236 Goal=   None    Shift=    0.000
 RMSDP=2.44D-08 MaxDP=1.86D-06 DE= 1.50D-11 OVMax= 1.13D-06

 Cycle  18  Pass 1  IDiag  1:
 RMSU=  7.42D-09    CP:  8.60D-01  1.67D+00  8.53D-01  1.05D+00  1.64D+00
                    CP:  1.25D+00  2.49D+00  2.19D+00  2.12D+00  1.58D+00
                    CP:  1.57D+00  1.24D+00  1.31D+00  1.39D+00  1.51D+00
                    CP:  1.13D+00  1.31D+00
 E= -1031.90635419748     Delta-E=       -0.000000000044 Rises=F Damp=F
 DIIS: error= 2.44D-08 at cycle  18 NSaved=  18.
 NSaved=18 IEnMin=18 EnMin= -1031.90635419748     IErMin=18 ErrMin= 2.44D-08
 ErrMax= 2.44D-08  0.00D+00 EMaxC= 1.00D-01 BMatC= 1.19D-13 BMatP= 1.12D-12
 IDIUse=1 WtCom= 1.00D+00 WtEn= 0.00D+00
 Coeff-Com: -0.308D-06 0.651D-06 0.614D-06-0.249D-05-0.124D-04-0.158D-04
 Coeff-Com:  0.185D-04 0.158D-03-0.671D-04-0.361D-03-0.805D-03 0.208D-02
 Coeff-Com:  0.129D-01-0.730D-02-0.668D-01-0.505D-01 0.197D+00 0.914D+00
 Coeff:     -0.308D-06 0.651D-06 0.614D-06-0.249D-05-0.124D-04-0.158D-04
 Coeff:      0.185D-04 0.158D-03-0.671D-04-0.361D-03-0.805D-03 0.208D-02
 Coeff:      0.129D-01-0.730D-02-0.668D-01-0.505D-01 0.197D+00 0.914D+00
 Gap=     0.236 Goal=   None    Shift=    0.000
 RMSDP=6.65D-09 MaxDP=4.82D-07 DE=-4.37D-11 OVMax= 3.70D-07

 Error on total polarization charges =  0.02149
 SCF Done:  E(RCAM-B3LYP) =  -1031.90635420     A.U. after   18 cycles
            NFock= 18  Conv=0.67D-08     -V/T= 2.0040
 KE= 1.027773706923D+03 PE=-6.190750618883D+03 EE= 2.236731074086D+03
 Leave Link  502 at Mon Feb 17 09:46:33 2020, MaxMem=  6710886400 cpu:      5474.5
 (Enter /opt/sys/apps/gaussian09/D.01/g09/l801.exe)
 DoSCS=F DFT=T ScalE2(SS,OS)=  1.000000  1.000000
 ExpMin= 3.60D-02 ExpMax= 8.59D+03 ExpMxC= 1.30D+03 IAcc=3 IRadAn=         5 AccDes= 0.00D+00
 HarFok:  IExCor=  205 AccDes= 0.00D+00 IRadAn=         5 IDoV=-2 UseB2=F ITyADJ=14
 ICtDFT= 12500011 ScaDFX=  1.000000  1.000000  1.000000  1.000000
 Largest valence mixing into a core orbital is  4.86D-05
 Largest core mixing into a valence orbital is  1.09D-05
 Range of M.O.s used for correlation:    25   646
 NBasis=   654 NAE=    84 NBE=    84 NFC=    24 NFV=     0
 NROrb=    622 NOA=    60 NOB=    60 NVA=   562 NVB=   562

 **** Warning!!: The largest alpha MO coefficient is  0.14792501D+03

 Leave Link  801 at Mon Feb 17 09:46:33 2020, MaxMem=  6710886400 cpu:         4.8
 (Enter /opt/sys/apps/gaussian09/D.01/g09/l914.exe)
 RHF ground state
 MDV=  6710886400 DFT=T DoStab=F Mixed=T DoRPA=T DoScal=F NonHer=T
 Would need an additional        132787700000 words for in-memory AO integral storage.
 NEqPCM:  Using non-equilibrium solvation (IEInf=1, Eps=  78.3553, EpsInf=   1.7778)
 Inv3:  Mode=1 IEnd=    28237872.
 Iteration    1 A*A^-1 deviation from unit magnitude is 6.99D-15 for   3062.
 Iteration    1 A*A^-1 deviation from orthogonality  is 2.61D-15 for   3056   2935.
 Iteration    1 A^-1*A deviation from unit magnitude is 7.11D-15 for   3062.
 Iteration    1 A^-1*A deviation from orthogonality  is 1.80D-15 for   2839   1249.
 Making orbital integer symmetry assigments:
    40 initial guesses have been made.
 Convergence on wavefunction:    0.000001000000000
 Davidson Disk Diagonalization:  ConvIn= 1.00D-06 SkipCon=T Conv= 1.00D-06.
 Max sub-space:   200 roots to seek:    40 dimension of matrix:        67440
 Iteration     1 Dimension    40 NMult     0 NNew     40
 CISAX will form    40 AO SS matrices at one time.
 NMat=    40 NSing=    40 JSym2X= 0.
 FoFJK:  IHMeth= 1 ICntrl=       0 DoSepK=T KAlg= 0 I1Cent=   0 FoldK=F
 IRaf=         1 NMat=  80 IRICut=       1 DoRegI=T DoRafI=F ISym2E= 0.
 New state      3 was old state     23
 New state      4 was old state     14
 New state      5 was old state      3
 New state      6 was old state     15
 New state      7 was old state      6
 New state      8 was old state      4
 New state      9 was old state     13
 New state     10 was old state     11
 Excitation Energies [eV] at current iteration:
 Root      1 :     3.362885803604104
 Root      2 :     4.474131427225058
 Root      3 :     4.774372745033928
 Root      4 :     5.103856137897611
 Root      5 :     5.149969791703305
 Root      6 :     5.235539004974861
 Root      7 :     5.328584563053774
 Root      8 :     5.606537061112795
 Root      9 :     5.783212493031237
 Root     10 :     5.925609425116606
 Root     11 :     6.107128856862345
 Root     12 :     6.214091452896426
 Root     13 :     6.274582323644551
 Root     14 :     6.365752175547602
 Root     15 :     6.621467269966289
 Root     16 :     6.639422123449440
 Root     17 :     6.754402573486898
 Root     18 :     6.782152615097448
 Root     19 :     6.871191926208323
 Root     20 :     7.104906318081221
 Root     21 :     7.155878470323828
 Root     22 :     7.187581897361079
 Root     23 :     7.357262882798707
 Root     24 :     7.380354620582989
 Root     25 :     7.473600499797875
 Root     26 :     7.515904838562688
 Root     27 :     7.556737090124139
 Root     28 :     7.681728343561925
 Root     29 :     7.729831161292232
 Root     30 :     7.740507694716728
 Root     31 :     7.755730356058766
 Root     32 :     7.937258775867233
 Root     33 :     8.002411592376816
 Root     34 :     8.069567729808274
 Root     35 :     8.200407800723733
 Root     36 :     8.230806865490031
 Root     37 :     8.321109584542629
 Root     38 :     8.334810843397563
 Root     39 :     8.547290598815419
 Root     40 :     8.628072618696720
 Iteration     2 Dimension    60 NMult    40 NNew     20
 CISAX will form    20 AO SS matrices at one time.
 NMat=    20 NSing=    20 JSym2X= 0.
 Root      1 not converged, maximum delta is    0.044371529696793
 Root      2 not converged, maximum delta is    0.048242103282633
 Root      3 not converged, maximum delta is    0.354734898762781
 Root      4 not converged, maximum delta is    0.399297655152398
 New state      5 was old state      6
 Root      5 not converged, maximum delta is    0.268874170341403
 New state      6 was old state      5
 Root      6 not converged, maximum delta is    0.250956010056857
 Root      7 not converged, maximum delta is    0.348481051294076
 New state      8 was old state      9
 Root      8 not converged, maximum delta is    0.126150629207946
 New state      9 was old state      8
 Root      9 not converged, maximum delta is    0.044463468080144
 Root     10 not converged, maximum delta is    0.102029541624577
 Excitation Energies [eV] at current iteration:
 Root      1 :     2.803035636195270   Change is   -0.559850167408833
 Root      2 :     4.003569587313662   Change is   -0.470561839911396
 Root      3 :     4.154001120004058   Change is   -0.620371625029869
 Root      4 :     4.286266150764557   Change is   -0.817589987133054
 Root      5 :     4.668693195568241   Change is   -0.566845809406620
 Root      6 :     4.807497129156289   Change is   -0.342472662547016
 Root      7 :     4.860890946965651   Change is   -0.467693616088123
 Root      8 :     5.151477266159139   Change is   -0.631735226872097
 Root      9 :     5.347778224510413   Change is   -0.258758836602382
 Root     10 :     5.476252909337857   Change is   -0.449356515778748
 Iteration     3 Dimension    80 NMult    60 NNew     20
 CISAX will form    20 AO SS matrices at one time.
 NMat=    20 NSing=    20 JSym2X= 0.
 Root      1 not converged, maximum delta is    0.009456718029133
 Root      2 not converged, maximum delta is    0.014174525670580
 Root      3 not converged, maximum delta is    0.144150448927739
 Root      4 not converged, maximum delta is    0.149988848561193
 Root      5 not converged, maximum delta is    0.043414551891975
 Root      6 not converged, maximum delta is    0.083696862908983
 Root      7 not converged, maximum delta is    0.126694082476153
 Root      8 not converged, maximum delta is    0.109702205682689
 Root      9 not converged, maximum delta is    0.012747226650113
 Root     10 not converged, maximum delta is    0.118659572931032
 Excitation Energies [eV] at current iteration:
 Root      1 :     2.761711383108878   Change is   -0.041324253086392
 Root      2 :     3.971307241036079   Change is   -0.032262346277583
 Root      3 :     4.046126642248332   Change is   -0.107874477755726
 Root      4 :     4.234659608347713   Change is   -0.051606542416843
 Root      5 :     4.614882429916775   Change is   -0.053810765651466
 Root      6 :     4.700087045664192   Change is   -0.107410083492096
 Root      7 :     4.816684462440819   Change is   -0.044206484524831
 Root      8 :     5.046215864542866   Change is   -0.105261401616273
 Root      9 :     5.336124810469206   Change is   -0.011653414041207
 Root     10 :     5.411204432838622   Change is   -0.065048476499236
 Iteration     4 Dimension   100 NMult    80 NNew     20
 CISAX will form    20 AO SS matrices at one time.
 NMat=    20 NSing=    20 JSym2X= 0.
 Root      1 not converged, maximum delta is    0.005219972097856
 Root      2 not converged, maximum delta is    0.008253008066460
 Root      3 not converged, maximum delta is    0.007271505479279
 Root      4 not converged, maximum delta is    0.005768286697205
 Root      5 not converged, maximum delta is    0.013035358297455
 Root      6 not converged, maximum delta is    0.025567346245609
 Root      7 not converged, maximum delta is    0.028395486362332
 Root      8 not converged, maximum delta is    0.035929688775215
 Root      9 not converged, maximum delta is    0.012489023163260
 Root     10 not converged, maximum delta is    0.098082129955894
 Excitation Energies [eV] at current iteration:
 Root      1 :     2.755560665523909   Change is   -0.006150717584969
 Root      2 :     3.965531615757358   Change is   -0.005775625278721
 Root      3 :     4.039328924858153   Change is   -0.006797717390179
 Root      4 :     4.231350959096828   Change is   -0.003308649250886
 Root      5 :     4.607980287441669   Change is   -0.006902142475105
 Root      6 :     4.684644084656597   Change is   -0.015442961007596
 Root      7 :     4.806251767669761   Change is   -0.010432694771058
 Root      8 :     5.022129010363643   Change is   -0.024086854179223
 Root      9 :     5.335154765002387   Change is   -0.000970045466820
 Root     10 :     5.379828318783239   Change is   -0.031376114055383
 Iteration     5 Dimension   120 NMult   100 NNew     20
 CISAX will form    20 AO SS matrices at one time.
 NMat=    20 NSing=    20 JSym2X= 0.
 Root      1 not converged, maximum delta is    0.001072422488975
 Root      2 not converged, maximum delta is    0.002067043549437
 Root      3 not converged, maximum delta is    0.002590353877620
 Root      4 not converged, maximum delta is    0.001669730730108
 Root      5 not converged, maximum delta is    0.003633553646448
 Root      6 not converged, maximum delta is    0.004937832952517
 Root      7 not converged, maximum delta is    0.006070355054945
 Root      8 not converged, maximum delta is    0.009190306896165
 Root      9 not converged, maximum delta is    0.008105943940048
 Root     10 not converged, maximum delta is    0.048773414529418
 Excitation Energies [eV] at current iteration:
 Root      1 :     2.755117453782797   Change is   -0.000443211741112
 Root      2 :     3.965035747471177   Change is   -0.000495868286181
 Root      3 :     4.038825068405098   Change is   -0.000503856453055
 Root      4 :     4.231045358426270   Change is   -0.000305600670558
 Root      5 :     4.607174534477617   Change is   -0.000805752964052
 Root      6 :     4.683027844299548   Change is   -0.001616240357049
 Root      7 :     4.804757085097421   Change is   -0.001494682572340
 Root      8 :     5.018597063790341   Change is   -0.003531946573302
 Root      9 :     5.334986838422564   Change is   -0.000167926579822
 Root     10 :     5.369761833870516   Change is   -0.010066484912722
 Iteration     6 Dimension   140 NMult   120 NNew     20
 CISAX will form    20 AO SS matrices at one time.
 NMat=    20 NSing=    20 JSym2X= 0.
 Root      1 not converged, maximum delta is    0.000257885201868
 Root      2 not converged, maximum delta is    0.000454842513445
 Root      3 not converged, maximum delta is    0.000533752369733
 Root      4 not converged, maximum delta is    0.000511641924456
 Root      5 not converged, maximum delta is    0.000837616512299
 Root      6 not converged, maximum delta is    0.000839044952146
 Root      7 not converged, maximum delta is    0.001276461017061
 Root      8 not converged, maximum delta is    0.001905958979979
 Root      9 not converged, maximum delta is    0.002002069671679
 Root     10 not converged, maximum delta is    0.012810300477266
 Excitation Energies [eV] at current iteration:
 Root      1 :     2.755092131602338   Change is   -0.000025322180459
 Root      2 :     3.964991458701352   Change is   -0.000044288769825
 Root      3 :     4.038791643284444   Change is   -0.000033425120654
 Root      4 :     4.231020600671545   Change is   -0.000024757754724
 Root      5 :     4.607107625541714   Change is   -0.000066908935903
 Root      6 :     4.682886513303022   Change is   -0.000141330996525
 Root      7 :     4.804611684248632   Change is   -0.000145400848789
 Root      8 :     5.018215272139808   Change is   -0.000381791650533
 Root      9 :     5.334960581186800   Change is   -0.000026257235765
 Root     10 :     5.368308095133902   Change is   -0.001453738736614
 Iteration     7 Dimension   160 NMult   140 NNew     20
 CISAX will form    20 AO SS matrices at one time.
 NMat=    20 NSing=    20 JSym2X= 0.
 Root      1 not converged, maximum delta is    0.000036450185816
 Root      2 not converged, maximum delta is    0.000084382645912
 Root      3 not converged, maximum delta is    0.000078054639501
 Root      4 not converged, maximum delta is    0.000087439978126
 Root      5 not converged, maximum delta is    0.000101193084522
 Root      6 not converged, maximum delta is    0.000149889337586
 Root      7 not converged, maximum delta is    0.000258812100880
 Root      8 not converged, maximum delta is    0.000360571848955
 Root      9 not converged, maximum delta is    0.000480734730727
 Root     10 not converged, maximum delta is    0.003759353995645
 Excitation Energies [eV] at current iteration:
 Root      1 :     2.755090893250075   Change is   -0.000001238352263
 Root      2 :     3.964988907387447   Change is   -0.000002551313905
 Root      3 :     4.038789444954908   Change is   -0.000002198329536
 Root      4 :     4.231018603597739   Change is   -0.000001997073806
 Root      5 :     4.607103174395488   Change is   -0.000004451146226
 Root      6 :     4.682875799026738   Change is   -0.000010714276284
 Root      7 :     4.804599004975561   Change is   -0.000012679273072
 Root      8 :     5.018185488656534   Change is   -0.000029783483275
 Root      9 :     5.334956860483578   Change is   -0.000003720703222
 Root     10 :     5.368138974026840   Change is   -0.000169121107063
 Iteration     8 Dimension   180 NMult   160 NNew     20
 CISAX will form    20 AO SS matrices at one time.
 NMat=    20 NSing=    20 JSym2X= 0.
 Root      1 not converged, maximum delta is    0.000006198603170
 Root      2 not converged, maximum delta is    0.000014931135062
 Root      3 not converged, maximum delta is    0.000018937850525
 Root      4 not converged, maximum delta is    0.000029869291764
 Root      5 not converged, maximum delta is    0.000021146830085
 Root      6 not converged, maximum delta is    0.000057843856596
 Root      7 not converged, maximum delta is    0.000052147898087
 Root      8 not converged, maximum delta is    0.000070263165839
 Root      9 not converged, maximum delta is    0.000082641338624
 Root     10 not converged, maximum delta is    0.000812317712478
 Excitation Energies [eV] at current iteration:
 Root      1 :     2.755090839743525   Change is   -0.000000053506551
 Root      2 :     3.964988765312527   Change is   -0.000000142074920
 Root      3 :     4.038789307287439   Change is   -0.000000137667469
 Root      4 :     4.231018466117057   Change is   -0.000000137480683
 Root      5 :     4.607102921525939   Change is   -0.000000252869548
 Root      6 :     4.682875023277229   Change is   -0.000000775749510
 Root      7 :     4.804598108626406   Change is   -0.000000896349155
 Root      8 :     5.018183519162661   Change is   -0.000001969493873
 Root      9 :     5.334956474462149   Change is   -0.000000386021429
 Root     10 :     5.368120304696059   Change is   -0.000018669330781
 Iteration     9 Dimension   200 NMult   180 NNew     20
 CISAX will form    20 AO SS matrices at one time.
 NMat=    20 NSing=    20 JSym2X= 0.
 Root      1 not converged, maximum delta is    0.000001048059824
 Root      2 not converged, maximum delta is    0.000003864509312
 Root      3 not converged, maximum delta is    0.000005208538584
 Root      4 not converged, maximum delta is    0.000009156662876
 Root      5 not converged, maximum delta is    0.000005901536874
 Root      6 not converged, maximum delta is    0.000015661947577
 Root      7 not converged, maximum delta is    0.000012663827448
 Root      8 not converged, maximum delta is    0.000017360495875
 Root      9 not converged, maximum delta is    0.000018619726915
 Root     10 not converged, maximum delta is    0.000120207192782
 Excitation Energies [eV] at current iteration:
 Root      1 :     2.755090838068277   Change is   -0.000000001675247
 Root      2 :     3.964988759300746   Change is   -0.000000006011781
 Root      3 :     4.038789297999135   Change is   -0.000000009288305
 Root      4 :     4.231018455935280   Change is   -0.000000010181776
 Root      5 :     4.607102907138627   Change is   -0.000000014387313
 Root      6 :     4.682874969773898   Change is   -0.000000053503331
 Root      7 :     4.804598052313350   Change is   -0.000000056313055
 Root      8 :     5.018183383322586   Change is   -0.000000135840075
 Root      9 :     5.334956439627038   Change is   -0.000000034835111
 Root     10 :     5.368118505957706   Change is   -0.000001798738353
 Davidson failed to converge within maximum sub-space dimensions.
  Restart with updated initial guess:
 Iteration     1 Dimension    40 NMult   200 NNew     40
 CISAX will form    40 AO SS matrices at one time.
 NMat=    40 NSing=    40 JSym2X= 0.
 Excitation Energies [eV] at current iteration:
 Root      1 :     2.755090838010033
 Root      2 :     3.964988759065693
 Root      3 :     4.038789297502749
 Root      4 :     4.231018455360763
 Root      5 :     4.607102905616992
 Root      6 :     4.682874966641889
 Root      7 :     4.804598049083703
 Root      8 :     5.018183374150345
 Root      9 :     5.334956443063355
 Root     10 :     5.368118389143398
 Iteration     2 Dimension    60 NMult   240 NNew     20
 CISAX will form    20 AO SS matrices at one time.
 NMat=    20 NSing=    20 JSym2X= 0.
 Root      1 has converged.
 Root      2 has converged.
 Root      3 has converged.
 Root      4 has converged.
 Root      5 not converged, maximum delta is    0.000001185094137
 Root      6 not converged, maximum delta is    0.000001120325024
 Root      7 not converged, maximum delta is    0.000002213314906
 Root      8 not converged, maximum delta is    0.000002016122333
 Root      9 not converged, maximum delta is    0.000001423443567
 Root     10 not converged, maximum delta is    0.000007090102692
 Excitation Energies [eV] at current iteration:
 Root      1 :     2.755090837963902   Change is   -0.000000000046130
 Root      2 :     3.964988759043384   Change is   -0.000000000022309
 Root      3 :     4.038789297437534   Change is   -0.000000000065216
 Root      4 :     4.231018455293264   Change is   -0.000000000067499
 Root      5 :     4.607102905514712   Change is   -0.000000000102280
 Root      6 :     4.682874966327304   Change is   -0.000000000314585
 Root      7 :     4.804598048669500   Change is   -0.000000000414203
 Root      8 :     5.018183372971747   Change is   -0.000000001178598
 Root      9 :     5.334956442667385   Change is   -0.000000000395971
 Root     10 :     5.368118371480827   Change is   -0.000000017662571
 Iteration     3 Dimension    72 NMult   260 NNew     12
 CISAX will form    12 AO SS matrices at one time.
 NMat=    12 NSing=    12 JSym2X= 0.
 Root      1 has converged.
 Root      2 has converged.
 Root      3 has converged.
 Root      4 has converged.
 Root      5 has converged.
 Root      6 has converged.
 Root      7 has converged.
 Root      8 not converged, maximum delta is    0.000001293152456
 Root      9 not converged, maximum delta is    0.000001891334733
 Root     10 not converged, maximum delta is    0.000009123696408
 Excitation Energies [eV] at current iteration:
 Root      1 :     2.755090837966498   Change is    0.000000000002596
 Root      2 :     3.964988759043840   Change is    0.000000000000456
 Root      3 :     4.038789297437453   Change is   -0.000000000000081
 Root      4 :     4.231018455292487   Change is   -0.000000000000777
 Root      5 :     4.607102905498760   Change is   -0.000000000015952
 Root      6 :     4.682874966262281   Change is   -0.000000000065023
 Root      7 :     4.804598048600340   Change is   -0.000000000069159
 Root      8 :     5.018183372854846   Change is   -0.000000000116901
 Root      9 :     5.334956442575792   Change is   -0.000000000091592
 Root     10 :     5.368118368014069   Change is   -0.000000003466759
 Iteration     4 Dimension    78 NMult   272 NNew      6
 CISAX will form     6 AO SS matrices at one time.
 NMat=     6 NSing=     6 JSym2X= 0.
 Root      1 has converged.
 Root      2 has converged.
 Root      3 has converged.
 Root      4 has converged.
 Root      5 has converged.
 Root      6 has converged.
 Root      7 has converged.
 Root      8 has converged.
 Root      9 not converged, maximum delta is    0.000001384849430
 Root     10 not converged, maximum delta is    0.000007897580467
 Excitation Energies [eV] at current iteration:
 Root      1 :     2.755090837974614   Change is    0.000000000008116
 Root      2 :     3.964988759038739   Change is   -0.000000000005101
 Root      3 :     4.038789297436170   Change is   -0.000000000001282
 Root      4 :     4.231018455293089   Change is    0.000000000000603
 Root      5 :     4.607102905516140   Change is    0.000000000017379
 Root      6 :     4.682874966262666   Change is    0.000000000000386
 Root      7 :     4.804598048597124   Change is   -0.000000000003217
 Root      8 :     5.018183372840184   Change is   -0.000000000014662
 Root      9 :     5.334956442546453   Change is   -0.000000000029339
 Root     10 :     5.368118367005640   Change is   -0.000000001008429
 Iteration     5 Dimension    82 NMult   278 NNew      4
 CISAX will form     4 AO SS matrices at one time.
 NMat=     4 NSing=     4 JSym2X= 0.
 Root      1 has converged.
 Root      2 has converged.
 Root      3 has converged.
 Root      4 has converged.
 Root      5 has converged.
 Root      6 has converged.
 Root      7 has converged.
 Root      8 has converged.
 Root      9 has converged.
 Root     10 not converged, maximum delta is    0.000004215493672
 Excitation Energies [eV] at current iteration:
 Root      1 :     2.755090837972764   Change is   -0.000000000001850
 Root      2 :     3.964988759039236   Change is    0.000000000000498
 Root      3 :     4.038789297436557   Change is    0.000000000000387
 Root      4 :     4.231018455292235   Change is   -0.000000000000855
 Root      5 :     4.607102905510644   Change is   -0.000000000005496
 Root      6 :     4.682874966267933   Change is    0.000000000005266
 Root      7 :     4.804598048600032   Change is    0.000000000002909
 Root      8 :     5.018183372844295   Change is    0.000000000004112
 Root      9 :     5.334956442531444   Change is   -0.000000000015009
 Root     10 :     5.368118366621105   Change is   -0.000000000384535
 Iteration     6 Dimension    84 NMult   282 NNew      2
 CISAX will form     2 AO SS matrices at one time.
 NMat=     2 NSing=     2 JSym2X= 0.
 Root      1 has converged.
 Root      2 has converged.
 Root      3 has converged.
 Root      4 has converged.
 Root      5 has converged.
 Root      6 has converged.
 Root      7 has converged.
 Root      8 has converged.
 Root      9 has converged.
 Root     10 not converged, maximum delta is    0.000002030076110
 Excitation Energies [eV] at current iteration:
 Root      1 :     2.755090837977569   Change is    0.000000000004804
 Root      2 :     3.964988759047094   Change is    0.000000000007858
 Root      3 :     4.038789297436638   Change is    0.000000000000082
 Root      4 :     4.231018455292079   Change is   -0.000000000000156
 Root      5 :     4.607102905524401   Change is    0.000000000013758
 Root      6 :     4.682874966268653   Change is    0.000000000000720
 Root      7 :     4.804598048596063   Change is   -0.000000000003970
 Root      8 :     5.018183372860940   Change is    0.000000000016645
 Root      9 :     5.334956442532107   Change is    0.000000000000662
 Root     10 :     5.368118366469419   Change is   -0.000000000151686
 Iteration     7 Dimension    86 NMult   284 NNew      2
 CISAX will form     2 AO SS matrices at one time.
 NMat=     2 NSing=     2 JSym2X= 0.
 Root      1 has converged.
 Root      2 has converged.
 Root      3 has converged.
 Root      4 has converged.
 Root      5 has converged.
 Root      6 has converged.
 Root      7 has converged.
 Root      8 has converged.
 Root      9 has converged.
 Root     10 not converged, maximum delta is    0.000001313630070
 Excitation Energies [eV] at current iteration:
 Root      1 :     2.755090837980642   Change is    0.000000000003073
 Root      2 :     3.964988759042098   Change is   -0.000000000004996
 Root      3 :     4.038789297436699   Change is    0.000000000000060
 Root      4 :     4.231018455291632   Change is   -0.000000000000447
 Root      5 :     4.607102905511483   Change is   -0.000000000012919
 Root      6 :     4.682874966268390   Change is   -0.000000000000263
 Root      7 :     4.804598048598287   Change is    0.000000000002224
 Root      8 :     5.018183372846917   Change is   -0.000000000014023
 Root      9 :     5.334956442531892   Change is   -0.000000000000215
 Root     10 :     5.368118366391164   Change is   -0.000000000078255
 Iteration     8 Dimension    88 NMult   286 NNew      2
 CISAX will form     2 AO SS matrices at one time.
 NMat=     2 NSing=     2 JSym2X= 0.
 Root      1 has converged.
 Root      2 has converged.
 Root      3 has converged.
 Root      4 has converged.
 Root      5 has converged.
 Root      6 has converged.
 Root      7 has converged.
 Root      8 has converged.
 Root      9 has converged.
 Root     10 has converged.
 Excitation Energies [eV] at current iteration:
 Root      1 :     2.755090837966051   Change is   -0.000000000014591
 Root      2 :     3.964988759018980   Change is   -0.000000000023118
 Root      3 :     4.038789297436740   Change is    0.000000000000041
 Root      4 :     4.231018455292215   Change is    0.000000000000583
 Root      5 :     4.607102905508198   Change is   -0.000000000003284
 Root      6 :     4.682874966268970   Change is    0.000000000000579
 Root      7 :     4.804598048586464   Change is   -0.000000000011823
 Root      8 :     5.018183372853306   Change is    0.000000000006389
 Root      9 :     5.334956442531861   Change is   -0.000000000000031
 Root     10 :     5.368118366347259   Change is   -0.000000000043905
 Convergence achieved on expansion vectors.
 ***********************************************************************
 Excited states from <AA,BB:AA,BB> singles matrix:
 ***********************************************************************
 
 1PDM for each excited state written to RWF  633
 Ground to excited state transition densities written to RWF  633
 Ground to excited state transition electric dipole moments (Au):
       state          X           Y           Z        Dip. S.      Osc.
         1        -4.0798      0.6750      0.0963     17.1098      1.1549
         2        -0.2571     -0.3087     -0.0387      0.1629      0.0158
         3        -0.0013     -0.0063      0.0383      0.0015      0.0001
         4         0.0149      0.0172     -0.1360      0.0190      0.0020
         5        -0.0007     -0.7380     -0.1156      0.5580      0.0630
         6        -0.0798      0.4294      0.0575      0.1941      0.0223
         7         0.1165     -0.4405     -0.0521      0.2103      0.0248
         8         0.3306      1.2802      0.1160      1.7616      0.2166
         9         0.0242     -0.1197     -0.0791      0.0212      0.0028
        10        -0.1167      0.0705      0.0167      0.0189      0.0025
 Ground to excited state transition velocity dipole moments (Au):
       state          X           Y           Z        Dip. S.      Osc.
         1         0.4034     -0.0635     -0.0093      0.1669      1.0987
         2         0.0385      0.0396      0.0051      0.0031      0.0141
         3         0.0002      0.0010     -0.0059      0.0000      0.0002
         4        -0.0022     -0.0034      0.0272      0.0008      0.0032
         5         0.0015      0.1327      0.0206      0.0180      0.0710
         6         0.0107     -0.0730     -0.0099      0.0055      0.0215
         7        -0.0161      0.0895      0.0106      0.0084      0.0316
         8        -0.0672     -0.2347     -0.0212      0.0601      0.2171
         9        -0.0049      0.0224      0.0165      0.0008      0.0027
        10         0.0262     -0.0115     -0.0030      0.0008      0.0028
 Ground to excited state transition magnetic dipole moments (Au):
       state          X           Y           Z
         1        -0.0124     -0.1008      0.8557
         2        -0.0137     -0.0688      0.5623
         3         0.6449     -0.5890     -0.0627
         4        -0.3942      0.0410     -0.0059
         5        -0.0017      0.0161     -0.6803
         6        -0.0078     -0.0812      0.8806
         7         0.0113     -0.0724      0.6086
         8         0.0460     -0.0959      0.7883
         9        -0.0266     -0.3266      0.2986
        10         0.0251      0.1844     -1.6905
 Ground to excited state transition velocity quadrupole moments (Au):
       state          XX          YY          ZZ          XY          XZ          YZ
         1        -0.4240     -0.2478      0.0221      0.1972      0.0303     -0.0594
         2         0.6295      0.3940      0.0216     -0.3586     -0.0290      0.0223
         3         0.0039     -0.0115      0.0131     -0.0061      0.0397      0.0601
         4         0.0000      0.0191     -0.0201      0.0077     -0.0502     -0.0870
         5         0.2241     -0.1870     -0.0062      0.0326      0.0449     -0.0279
         6         1.9183     -0.0161      0.0312      0.4743      0.0301     -0.0265
         7        -1.2175     -0.0364     -0.0170     -0.2515     -0.0220      0.0110
         8        -2.3080     -0.4316     -0.0137      2.0355      0.2365     -0.0011
         9         0.1543      0.0561     -0.0048      0.1925      0.3313     -0.0384
        10        -1.8202     -0.2668     -0.0408     -1.3545     -0.1321      0.0299
[...]
    37  C    0.000119  -0.001490  -0.000783   0.002371  -0.000280  -0.023380
    38  H   -0.000021   0.000279   0.000028  -0.000074  -0.000051   0.001281
    39  C    0.002590  -0.008660   0.000441  -0.003716   0.017722   0.143637
    40  H    0.000002  -0.000036  -0.000008  -0.000058   0.000038  -0.000133
    41  H    0.000527  -0.002083  -0.000202   0.000142  -0.001136  -0.004766
    42  H    0.000004  -0.000012   0.000033   0.000111  -0.000045   0.000575
              19         20         21         22         23         24
     1  C   -0.178424  -0.078768   0.012930  -0.019030  -0.096298  -0.029252
     2  C    0.101060  -0.001368  -0.004809  -0.002331  -0.376240  -0.039525
     3  C    0.019608   0.120518   0.030399   0.008190  -0.158635   0.024768
     4  C   -0.042403   0.014081  -0.023554  -0.005031  -0.139722  -0.023101
     5  C   -0.076010  -0.366849  -0.073392  -0.025106  -0.042450   0.012763
     6  C   -0.087316   0.094513   0.049862   0.010393   0.470749   0.045339
     7  C    0.017048   0.007373   0.007359  -0.000539  -0.015830   0.002871
     8  C   -0.006232   0.053785   0.017637   0.002375  -0.023412   0.000943
     9  C   -0.000125   0.000075   0.001114  -0.000093  -0.000194  -0.000112
    10  C    0.000958   0.000792   0.000377   0.000023  -0.000462   0.000244
    11  C   -0.000233   0.001803   0.000519   0.000093  -0.000325   0.000030
    12  C    0.003358  -0.005519  -0.004845  -0.000042   0.000473   0.000551
    13  H   -0.014364   0.002810   0.002022  -0.002729   0.000183  -0.045535
    14  H   -0.005276  -0.004019  -0.000954   0.000037   0.007150   0.004371
    15  H   -0.012361  -0.016458  -0.056007   0.005731  -0.005338   0.000335
    16  H   -0.000070   0.000033   0.000308  -0.000018  -0.000037   0.000004
    17  O   -0.009032   0.005834   0.003601   0.000274  -0.000968   0.000063
    18  N    0.002468  -0.000790  -0.000427  -0.000040   0.000257   0.000115
    19  N    7.070076   0.074061  -0.056985  -0.072282   0.100463  -0.040159
    20  C    0.074061   6.014781   0.517351   0.502506  -0.467141  -0.056740
    21  H   -0.056985   0.517351   0.566881  -0.040087  -0.059404  -0.007913
    22  H   -0.072282   0.502506  -0.040087   0.496336   0.012522   0.004665
    23  C    0.100463  -0.467141  -0.059404   0.012522   6.204467   0.496548
    24  H   -0.040159  -0.056740  -0.007913   0.004665   0.496548   0.563039
    25  H   -0.082503   0.015014   0.005491  -0.015300   0.504823  -0.043120
    26  C    0.021699   0.134255   0.002552   0.008097  -0.226294  -0.053289
    27  H   -0.011417   0.011635   0.002611   0.002103   0.056821  -0.012391
    28  H    0.022915   0.004492   0.000498  -0.000706  -0.088938  -0.000401
    29  H    0.000297  -0.042476  -0.009657  -0.004719   0.034738   0.012519
    30  C    0.021313  -0.219315  -0.066540  -0.078962   0.166556   0.007807
    31  H   -0.007397   0.051822   0.013249  -0.000578  -0.045186  -0.009355
    32  H   -0.014148   0.053426  -0.009038   0.009813   0.006427   0.002707
    33  H    0.028078  -0.094489  -0.005222  -0.006481   0.006997   0.000507
    34  O    0.000000   0.000001  -0.000004   0.000000   0.000000   0.000000
    35  C   -0.000445   0.001346   0.000309   0.000051   0.000722  -0.000434
    36  C    0.000062   0.000078   0.000078   0.000000   0.000005   0.000020
    37  C    0.000007   0.000040   0.000027   0.000001  -0.000010  -0.000004
    38  H   -0.000001  -0.000003  -0.000002   0.000000   0.000004   0.000001
    39  C   -0.000072   0.000022  -0.000032   0.000003   0.000154  -0.000068
    40  H    0.000000   0.000000   0.000000   0.000000   0.000000   0.000000
    41  H    0.000049   0.000021   0.000039  -0.000003  -0.000222  -0.000055
    42  H   -0.000001  -0.000005  -0.000001   0.000000   0.000000   0.000000
              25         26         27         28         29         30
     1  C   -0.006348   0.127604   0.014443   0.009901  -0.008379  -0.054004
     2  C   -0.027759   0.135809  -0.030734   0.011837   0.002106  -0.019310
     3  C   -0.015362   0.047219   0.000925   0.003916  -0.003381  -0.005293
     4  C    0.011621  -0.060461  -0.007748  -0.002823  -0.001933  -0.021546
     5  C   -0.014888   0.011187  -0.032257   0.002064   0.023984   0.075393
     6  C    0.038632  -0.304527   0.004787  -0.001851  -0.033802  -0.044609
     7  C    0.000991  -0.007026   0.000623  -0.000292   0.000358  -0.000632
     8  C   -0.000300  -0.003436   0.002997  -0.000290  -0.000904  -0.006565
     9  C    0.000075  -0.000296   0.000057  -0.000025   0.000003   0.000281
    10  C    0.000009  -0.000135   0.000114  -0.000007  -0.000001  -0.000093
    11  C   -0.000046   0.000111   0.000003   0.000005  -0.000007  -0.000154
    12  C   -0.000130   0.000238  -0.000072   0.000028   0.000078  -0.000063
    13  H    0.009635  -0.001722  -0.002040  -0.002969  -0.002760  -0.002467
    14  H   -0.000138  -0.002492  -0.000042   0.000128   0.000443  -0.000161
    15  H   -0.002844   0.004153  -0.002453   0.000208   0.001805  -0.019785
    16  H    0.000010  -0.000041   0.000007  -0.000002   0.000000  -0.000005
    17  O    0.000067  -0.000662   0.000046  -0.000026  -0.000025  -0.000626
    18  N    0.000012   0.000015   0.000142   0.000006  -0.000010   0.000167
    19  N   -0.082503   0.021699  -0.011417   0.022915   0.000297   0.021313
    20  C    0.015014   0.134255   0.011635   0.004492  -0.042476  -0.219315
    21  H    0.005491   0.002552   0.002611   0.000498  -0.009657  -0.066540
    22  H   -0.015300   0.008097   0.002103  -0.000706  -0.004719  -0.078962
    23  C    0.504823  -0.226294   0.056821  -0.088938   0.034738   0.166556
    24  H   -0.043120  -0.053289  -0.012391  -0.000401   0.012519   0.007807
    25  H    0.498621  -0.088457   0.009010  -0.008036  -0.000883   0.006934
    26  C   -0.088457   5.555775   0.348592   0.432287   0.392626  -0.035544
    27  H    0.009010   0.348592   0.584081  -0.028121  -0.058738   0.001695
    28  H   -0.008036   0.432287  -0.028121   0.502699  -0.020980  -0.000616
    29  H   -0.000883   0.392626  -0.058738  -0.020980   0.548719   0.005237
    30  C    0.006934  -0.035544   0.001695  -0.000616   0.005237   5.554249
    31  H   -0.004844   0.008340   0.000579   0.000715  -0.004217   0.373348
    32  H    0.001200   0.000501   0.000749  -0.000226   0.000601   0.349829
    33  H   -0.000457  -0.000956  -0.000198  -0.000079   0.000493   0.443744
    34  O    0.000000   0.000000   0.000000   0.000000   0.000000   0.000000
    35  C    0.000029   0.000067  -0.000018   0.000001  -0.000042  -0.000119
    36  C    0.000002  -0.000006   0.000008   0.000000   0.000000   0.000011
    37  C    0.000000   0.000000   0.000002   0.000000  -0.000001  -0.000004
    38  H    0.000000   0.000000   0.000000   0.000000   0.000000   0.000000
    39  C    0.000002   0.000016  -0.000017   0.000002  -0.000003  -0.000004
    40  H    0.000000   0.000000   0.000000   0.000000   0.000000   0.000000
    41  H   -0.000005   0.000024  -0.000007  -0.000001  -0.000002  -0.000001
    42  H    0.000000   0.000000   0.000000   0.000000   0.000000   0.000000
              31         32         33         34         35         36
     1  C    0.037831  -0.028952  -0.007670  -0.000141   0.154590  -0.001839
     2  C    0.013028  -0.016914  -0.001294   0.000292   0.148277   0.004686
     3  C    0.007011   0.000231  -0.001808  -0.009709   0.735714  -0.289281
     4  C   -0.009496   0.001462   0.002658   0.020976  -0.752053  -0.021492
     5  C   -0.022487  -0.025081   0.029110  -0.001582   0.018764  -0.016927
     6  C   -0.037366   0.023038  -0.011578   0.000361  -0.005592   0.001963
     7  C   -0.001815   0.004491   0.001324   0.064174  -2.363495  -0.275770
     8  C    0.000678   0.004584  -0.000769  -0.126063  -1.255239  -1.245896
     9  C    0.000027  -0.000195  -0.000005  -0.077817  -1.482815  -2.561526
    10  C   -0.000055   0.000436   0.000030  -0.116681  -1.137586  -0.706116
    11  C    0.000034   0.000367  -0.000024   0.472803   0.132808  -0.480222
    12  C   -0.000335   0.000218   0.000351  -0.383462   0.193651   0.496081
    13  H    0.001919  -0.001915  -0.000206  -0.000004   0.008979  -0.000646
    14  H   -0.000232   0.000133  -0.000008   0.000010  -0.016734   0.000761
    15  H   -0.000824  -0.014035   0.000294   0.000105  -0.004141  -0.002531
    16  H    0.000004   0.000025   0.000024  -0.016912  -0.012159   0.003095
    17  O    0.000048   0.000704  -0.000179  -0.002959   0.076581  -0.033312
    18  N   -0.000071   0.000125   0.000021   0.000360   0.177639  -0.032104
    19  N   -0.007397  -0.014148   0.028078   0.000000  -0.000445   0.000062
    20  C    0.051822   0.053426  -0.094489   0.000001   0.001346   0.000078
    21  H    0.013249  -0.009038  -0.005222  -0.000004   0.000309   0.000078
    22  H   -0.000578   0.009813  -0.006481   0.000000   0.000051   0.000000
    23  C   -0.045186   0.006427   0.006997   0.000000   0.000722   0.000005
    24  H   -0.009355   0.002707   0.000507   0.000000  -0.000434   0.000020
    25  H   -0.004844   0.001200  -0.000457   0.000000   0.000029   0.000002
    26  C    0.008340   0.000501  -0.000956   0.000000   0.000067  -0.000006
    27  H    0.000579   0.000749  -0.000198   0.000000  -0.000018   0.000008
    28  H    0.000715  -0.000226  -0.000079   0.000000   0.000001   0.000000
    29  H   -0.004217   0.000601   0.000493   0.000000  -0.000042   0.000000
    30  C    0.373348   0.349829   0.443744   0.000000  -0.000119   0.000011
    31  H    0.555899  -0.059156  -0.026503   0.000000   0.000013  -0.000005
    32  H   -0.059156   0.590621  -0.029119   0.000000   0.000008   0.000044
    33  H   -0.026503  -0.029119   0.512130   0.000000  -0.000017   0.000005
    34  O    0.000000   0.000000   0.000000   8.415819   0.000154   0.160956
    35  C    0.000013   0.000008  -0.000017   0.000154  10.895579   2.075725
    36  C   -0.000005   0.000044   0.000005   0.160956   2.075725   9.270981
    37  C    0.000000   0.000010   0.000000   0.066424  -0.882906   0.039151
    38  H    0.000000   0.000000   0.000000  -0.000237  -0.106631  -0.015656
    39  C    0.000001  -0.000012  -0.000001  -0.017037  -0.761844  -0.702112
    40  H    0.000000   0.000000   0.000000   0.001876  -0.015647  -0.050236
    41  H    0.000004  -0.000009   0.000000   0.000180   0.493483   0.035418
    42  H    0.000000  -0.000001   0.000000  -0.002929   0.029832   0.432475
              37         38         39         40         41         42
     1  C    0.003646  -0.000026   0.011467   0.000045  -0.001019   0.000109
     2  C    0.028545  -0.002643  -0.033834   0.000342   0.020921   0.000181
     3  C   -0.078185   0.002966   0.578316   0.000150  -0.007521   0.003159
     4  C   -0.086277   0.004958   0.012221  -0.000714  -0.014262   0.000851
     5  C    0.002481  -0.000051   0.008180   0.000026  -0.000267  -0.000175
     6  C    0.000400   0.000144   0.004998   0.000008  -0.004473  -0.000099
     7  C    0.100804   0.010922  -0.515735   0.000792  -0.034204  -0.011394
     8  C   -0.183060   0.011309  -0.155208  -0.007185  -0.018106   0.004266
     9  C    0.657214   0.031834  -1.444937  -0.000695   0.041142   0.005394
    10  C   -0.403329   0.000548  -0.567123   0.007788   0.035204  -0.033472
    11  C   -0.341471  -0.008510   0.495008   0.006703  -0.010819  -0.037118
    12  C   -0.194132  -0.002542  -0.122520   0.001443  -0.000700   0.016652
    13  H    0.000119  -0.000021   0.002590   0.000002   0.000527   0.000004
    14  H   -0.001490   0.000279  -0.008660  -0.000036  -0.002083  -0.000012
    15  H   -0.000783   0.000028   0.000441  -0.000008  -0.000202   0.000033
    16  H    0.002371  -0.000074  -0.003716  -0.000058   0.000142   0.000111
    17  O   -0.000280  -0.000051   0.017722   0.000038  -0.001136  -0.000045
    18  N   -0.023380   0.001281   0.143637  -0.000133  -0.004766   0.000575
    19  N    0.000007  -0.000001  -0.000072   0.000000   0.000049  -0.000001
    20  C    0.000040  -0.000003   0.000022   0.000000   0.000021  -0.000005
    21  H    0.000027  -0.000002  -0.000032   0.000000   0.000039  -0.000001
    22  H    0.000001   0.000000   0.000003   0.000000  -0.000003   0.000000
    23  C   -0.000010   0.000004   0.000154   0.000000  -0.000222   0.000000
    24  H   -0.000004   0.000001  -0.000068   0.000000  -0.000055   0.000000
    25  H    0.000000   0.000000   0.000002   0.000000  -0.000005   0.000000
    26  C    0.000000   0.000000   0.000016   0.000000   0.000024   0.000000
    27  H    0.000002   0.000000  -0.000017   0.000000  -0.000007   0.000000
    28  H    0.000000   0.000000   0.000002   0.000000  -0.000001   0.000000
    29  H   -0.000001   0.000000  -0.000003   0.000000  -0.000002   0.000000
    30  C   -0.000004   0.000000  -0.000004   0.000000  -0.000001   0.000000
    31  H    0.000000   0.000000   0.000001   0.000000   0.000004   0.000000
    32  H    0.000010   0.000000  -0.000012   0.000000  -0.000009  -0.000001
    33  H    0.000000   0.000000  -0.000001   0.000000   0.000000   0.000000
    34  O    0.066424  -0.000237  -0.017037   0.001876   0.000180  -0.002929
    35  C   -0.882906  -0.106631  -0.761844  -0.015647   0.493483   0.029832
    36  C    0.039151  -0.015656  -0.702112  -0.050236   0.035418   0.432475
    37  C    7.213674  -0.035514   0.149659   0.436926  -0.000949  -0.049831
    38  H   -0.035514   0.449163   0.448371  -0.008025  -0.009694   0.000651
    39  C    0.149659   0.448371   9.093091  -0.032463  -0.168773  -0.004475
    40  H    0.436926  -0.008025  -0.032463   0.451883   0.001514  -0.008485
    41  H   -0.000949  -0.009694  -0.168773   0.001514   0.450321   0.000990
    42  H   -0.049831   0.000651  -0.004475  -0.008485   0.000990   0.445205
 Mulliken charges:
               1
     1  C   -0.240366
     2  C   -0.406408
     3  C    0.097574
     4  C    0.192276
     5  C   -0.245792
     6  C   -0.200944
     7  C    0.486740
     8  C    0.149859
     9  C    0.474888
    10  C    0.205711
    11  C   -0.562330
    12  C   -0.502932
    13  H    0.236137
    14  H    0.251698
    15  H    0.273381
    16  H    0.226960
    17  O   -0.090572
    18  N    0.091521
    19  N    0.233738
    20  C   -0.328530
    21  H    0.183659
    22  H    0.210864
    23  C   -0.322958
    24  H    0.181242
    25  H    0.209243
    26  C   -0.445822
    27  H    0.144223
    28  H    0.164686
    29  H    0.168908
    30  C   -0.430151
    31  H    0.165372
    32  H    0.147049
    33  H    0.161295
    34  O   -0.448956
    35  C   -0.346405
    36  C   -0.085929
    37  C   -0.419893
    38  H    0.227221
    39  C   -0.427256
    40  H    0.214150
    41  H    0.199298
    42  H    0.207551
 Sum of Mulliken charges =   0.00000
 Mulliken charges with hydrogens summed into heavy atoms:
               1
     1  C   -0.004229
     2  C   -0.154711
     3  C    0.097574
     4  C    0.192276
     5  C    0.027589
     6  C   -0.200944
     7  C    0.486740
     8  C    0.149859
     9  C    0.474888
    10  C    0.205711
    11  C   -0.562330
    12  C   -0.275972
    17  O   -0.090572
    18  N    0.091521
    19  N    0.233738
    20  C    0.065993
    23  C    0.067527
    26  C    0.031995
    30  C    0.043566
    34  O   -0.448956
    35  C   -0.147106
    36  C    0.121622
    37  C   -0.205743
    39  C   -0.200035
 Electronic spatial extent (au):  <R**2>=          11075.6476
 Charge=              0.0000 electrons
 Dipole moment (field-independent basis, Debye):
    X=             19.8398    Y=             -5.4924    Z=             -0.6668  Tot=             20.5969
 Quadrupole moment (field-independent basis, Debye-Ang):
   XX=           -112.5349   YY=           -146.5690   ZZ=           -146.5718
   XY=             28.5717   XZ=              2.8570   YZ=             -0.1110
 Traceless Quadrupole moment (field-independent basis, Debye-Ang):
   XX=             22.6904   YY=            -11.3438   ZZ=            -11.3466
   XY=             28.5717   XZ=              2.8570   YZ=             -0.1110
 Octapole moment (field-independent basis, Debye-Ang**2):
  XXX=            469.5752  YYY=            -60.6904  ZZZ=              2.2913  XYY=            120.9927
  XXY=           -152.5195  XXZ=            -17.5388  XZZ=             29.4403  YZZ=              7.7078
  YYZ=             -8.9443  XYZ=             10.8294
 Hexadecapole moment (field-independent basis, Debye-Ang**3):
 XXXX=         -11217.1367 YYYY=          -2177.4616 ZZZZ=           -321.8010 XXXY=            760.2595
 XXXZ=             77.7633 YYYX=            309.7025 YYYZ=              0.8329 ZZZX=              1.6645
 ZZZY=             -6.3757 XXYY=          -2633.3185 XXZZ=          -2300.0959 YYZZ=           -433.4853
 XXYZ=             -7.7402 YYXZ=             37.8707 ZZXY=            -12.9275
 N-N= 1.894339483676D+03 E-N=-6.190840670963D+03  KE= 1.027867189929D+03
 No NMR shielding tensors so no spin-rotation constants.
 Leave Link  601 at Mon Feb 17 10:18:36 2020, MaxMem=  6710886400 cpu:         7.5
 (Enter /opt/sys/apps/gaussian09/D.01/g09/l9999.exe)

 Test job not archived.
 1\1\GINC-S92P33\SP\RCAM-B3LYP TD-FC\6-311++G(d,p)\C20H18N2O2\SALVATORE
 \17-Feb-2020\0\\#p CAM-B3LYP/6-311++G** nosym density=current geom=all
 check EmpiricalDispersion=GD3 SCRF=(CPCM, solvent=water) IOP(10/74=10)
  TD=(NSTATES=10,ROOT=1,NONEQ) iop(3/119=0810000000) iop(3/120=08100000
 00)\\Nil\\0,1\C,0,2.763179283,-1.6105364456,-0.2067628844\C,0,1.431538
 3943,-1.9432909159,-0.2372739623\C,0,0.4238281622,-0.9620643305,-0.114
 7236914\C,0,0.8543616269,0.3759331944,0.0387993474\C,0,2.180870425,0.7
 40933924,0.0725512527\C,0,3.1885553239,-0.2513314163,-0.0473358671\C,0
 ,-1.4102976827,1.0537984162,0.1200123544\C,0,-1.7895796045,-0.33842211
 04,-0.0292395027\C,0,-3.2197468045,-0.6442299906,-0.0525208679\C,0,-4.
 1641336023,0.4003973199,0.0639675051\C,0,-3.7289282745,1.8176083815,0.
 2110192029\C,0,-2.3090935209,2.069802983,0.2318845213\H,0,3.4940009841
 ,-2.4008649391,-0.286794015\H,0,1.1263315433,-2.9771154839,-0.34954249
 41\H,0,2.4147818536,1.7900063165,0.1726988409\H,0,-1.9668922155,3.0913
 722156,0.3403455014\O,0,-0.0837081552,1.3661015796,0.1508919081\N,0,-0
 .8956046462,-1.2913502035,-0.1420499776\N,0,4.508863495,0.0747787706,-
 0.0086873778\C,0,4.9634293197,1.4423163994,0.2708072022\H,0,4.30549102
 2,1.8987376465,1.0125261434\H,0,5.9434089466,1.3641580209,0.7457899555
 \C,0,5.5681288597,-0.9139814366,-0.2485868606\H,0,5.2459499928,-1.6140
 577781,-1.0208297498\H,0,6.4183399242,-0.3740240546,-0.6700809686\C,0,
 5.9955737972,-1.6544482418,1.0212022534\H,0,5.1633206072,-2.2180498625
 ,1.4487860204\H,0,6.8043325294,-2.3535652518,0.7932956088\H,0,6.354205
 5182,-0.9506173508,1.7764504366\C,0,5.0595986497,2.3097930047,-0.98686
 49647\H,0,5.7535791976,1.8685816842,-1.7067157339\H,0,4.0862790045,2.4
 134313725,-1.4715214698\H,0,5.423420681,3.3073329251,-0.7275065413\O,0
 ,-4.5579207663,2.73865467,0.311816188\C,0,-3.6749080353,-1.9676024526,
 -0.1899544009\C,0,-5.5337785065,0.1003625692,0.0411182411\C,0,-5.96936
 41151,-1.2091148048,-0.0943574283\H,0,-5.3698541589,-3.2707234458,-0.3
 164954445\C,0,-5.0327004267,-2.2459272684,-0.2102579693\H,0,-7.0301230
 125,-1.431107255,-0.1108366562\H,0,-2.9486866823,-2.7650427713,-0.2792
 53004\H,0,-6.2403469313,0.9159344161,0.1317513484\\Version=ES64L-G09Re
 vD.01\HF=-1031.9063542\RMSD=6.654e-09\Dipole=7.8055929,-2.1608885,-0.2
 623431\Quadrupole=16.8697401,-8.433849,-8.4358911,21.2423468,2.1241112
 ,-0.0825362\PG=C01 [X(C20H18N2O2)]\\@


 YE HAVE SOWN MUCH, AND BRING IN LITTLE.
 YE EAT, BUT YE HAVE NOT ENOUGH.
 YE DRINK, BUT YE ARE NOT FILLED WITH DRINK.
 YE CLOTHE YOU, BUT THERE IS NONE WARM.
 AND HE THAT EARNETH WAGES EARNETH WAGES TO PUT
 IT INTO A BAG WITH HOLES.
                                     HAGGAI I,6
 Job cpu time:       0 days 14 hours 21 minutes 29.6 seconds.
 File lengths (MBytes):  RWF=   1215 Int=      0 D2E=      0 Chk=    268 Scr=      1
 Normal termination of Gaussian 09 at Mon Feb 17 10:18:37 2020.
