 Entering Gaussian System, Link 0=g09
 Initial command:
 /opt/sys/apps/gaussian09/D.01/g09/l1.exe "/tmp/Gau-9948.inp" -scrdir="/tmp/"
 Entering Link 1 = /opt/sys/apps/gaussian09/D.01/g09/l1.exe PID=      9949.
  
 Copyright (c) 1988,1990,1992,1993,1995,1998,2003,2009,2013,
            Gaussian, Inc.  All Rights Reserved.
  
 This is part of the Gaussian(R) 09 program.  It is based on
 the Gaussian(R) 03 system (copyright 2003, Gaussian, Inc.),
 the Gaussian(R) 98 system (copyright 1998, Gaussian, Inc.),
 the Gaussian(R) 94 system (copyright 1995, Gaussian, Inc.),
 the Gaussian 92(TM) system (copyright 1992, Gaussian, Inc.),
 the Gaussian 90(TM) system (copyright 1990, Gaussian, Inc.),
 the Gaussian 88(TM) system (copyright 1988, Gaussian, Inc.),
 the Gaussian 86(TM) system (copyright 1986, Carnegie Mellon
 University), and the Gaussian 82(TM) system (copyright 1983,
 Carnegie Mellon University). Gaussian is a federally registered
 trademark of Gaussian, Inc.
  
 This software contains proprietary and confidential information,
 including trade secrets, belonging to Gaussian, Inc.
  
 This software is provided under written license and may be
 used, copied, transmitted, or stored only in accord with that
 written license.
  
 The following legend is applicable only to US Government
 contracts under FAR:
  
                    RESTRICTED RIGHTS LEGEND
  
 Use, reproduction and disclosure by the US Government is
 subject to restrictions as set forth in subparagraphs (a)
 and (c) of the Commercial Computer Software - Restricted
 Rights clause in FAR 52.227-19.
  
 Gaussian, Inc.
 340 Quinnipiac St., Bldg. 40, Wallingford CT 06492
  
  
 ---------------------------------------------------------------
 Warning -- This program may not be used in any manner that
 competes with the business of Gaussian, Inc. or will provide
 assistance to any competitor of Gaussian, Inc.  The licensee
 of this program is prohibited from giving any competitor of
 Gaussian, Inc. access to this program.  By using this program,
 the user acknowledges that Gaussian, Inc. is engaged in the
 business of creating and licensing software in the field of
 computational chemistry and represents and warrants to the
 licensee that it is not a competitor of Gaussian, Inc. and that
 it will not use this program in any manner prohibited above.
 ---------------------------------------------------------------
  

 Cite this work as:
 Gaussian 09, Revision D.01,
 M. J. Frisch, G. W. Trucks, H. B. Schlegel, G. E. Scuseria, 
 M. A. Robb, J. R. Cheeseman, G. Scalmani, V. Barone, B. Mennucci, 
 G. A. Petersson, H. Nakatsuji, M. Caricato, X. Li, H. P. Hratchian, 
 A. F. Izmaylov, J. Bloino, G. Zheng, J. L. Sonnenberg, M. Hada, 
 M. Ehara, K. Toyota, R. Fukuda, J. Hasegawa, M. Ishida, T. Nakajima, 
 Y. Honda, O. Kitao, H. Nakai, T. Vreven, J. A. Montgomery, Jr., 
 J. E. Peralta, F. Ogliaro, M. Bearpark, J. J. Heyd, E. Brothers, 
 K. N. Kudin, V. N. Staroverov, T. Keith, R. Kobayashi, J. Normand, 
 K. Raghavachari, A. Rendell, J. C. Burant, S. S. Iyengar, J. Tomasi, 
 M. Cossi, N. Rega, J. M. Millam, M. Klene, J. E. Knox, J. B. Cross, 
 V. Bakken, C. Adamo, J. Jaramillo, R. Gomperts, R. E. Stratmann, 
 O. Yazyev, A. J. Austin, R. Cammi, C. Pomelli, J. W. Ochterski, 
 R. L. Martin, K. Morokuma, V. G. Zakrzewski, G. A. Voth, 
 P. Salvador, J. J. Dannenberg, S. Dapprich, A. D. Daniels, 
 O. Farkas, J. B. Foresman, J. V. Ortiz, J. Cioslowski, 
 and D. J. Fox, Gaussian, Inc., Wallingford CT, 2013.
 
 ******************************************
 Gaussian 09:  ES64L-G09RevD.01 24-Apr-2013
                 2-May-2020 
 ******************************************
 %NProcShared=24
 Will use up to   24 processors via shared memory.
 %mem=50GB
 %oldChk=checkpointCPCM_wat.chk
 %Chk=checkpointCPCMES_wat.chk
 Copying data from "checkpointCPCM_wat.chk" to current chk file "checkpointCPCMES_wat.chk".
 ----------------------------------------------------------------------
 #p CAM-B3LYP/6-311++G** nosym density=current geom=allcheck EmpiricalD
 ispersion=GD3 SCRF=(CPCM, solvent=water) IOP(10/74=10) TD=(NSTATES=30,
 ROOT=1,NONEQ) iop(3/119=0810000000) iop(3/120=0810000000)
 ----------------------------------------------------------------------
 1/29=7,30=1,38=1/1;
 2/12=2,15=1,40=1/2;
 3/5=4,6=6,7=1111,11=9,14=-4,16=1,25=1,30=1,70=2101,71=1,72=1,74=-40,119=810000000,120=810000000,124=31/1,2,8,3;
 4//1;
 5/5=2,38=5,53=1/2;
 8/6=1,10=2,107=1,108=30/1;
 9/8=1,15=1,41=30,42=1,70=2,73=1/14;
 10/5=4,13=10,31=1,74=10/2;
 6/7=2,8=2,9=2,10=2,22=-1/1;
 99/5=1,9=1/99;
 Leave Link    1 at Sat May  2 11:00:13 2020, MaxMem=  6710886400 cpu:        34.7
 (Enter /opt/sys/apps/gaussian09/D.01/g09/l101.exe)
 Structure from the checkpoint file:  "checkpointCPCMES_wat.chk"
 ---
 R6G
 ---
 Charge =  1 Multiplicity = 1
 Redundant internal coordinates found in file.
 C,0,1.4821314991,-12.471956085,-0.370660113
 C,0,0.0406171139,-12.4614037059,-0.4920689321
 C,0,-0.6397408636,-11.232661177,-0.6099900245
 C,0,2.1521046485,-11.2795998934,-0.380873442
 C,0,1.4912571922,-10.0239113416,-0.5033121776
 C,0,0.0763806133,-10.0544280374,-0.6105715216
 O,0,-0.6378305287,-8.9025450529,-0.7152783862
 C,0,2.1480157283,-8.781900598,-0.4959690263
 C,0,3.6376689132,-8.719263369,-0.4480709797
 C,0,4.3683832241,-8.5450821097,0.7428516481
 C,0,5.767288801,-8.4815774202,0.6873167415
 C,0,6.4371019152,-8.5899599866,-0.5258850138
 C,0,5.7123971481,-8.7629553576,-1.7034276477
 C,0,4.3217420278,-8.8268322226,-1.6616722617
 C,0,1.3956447728,-7.6025600271,-0.6250721328
 C,0,-0.0168468818,-7.6929072441,-0.7254183298
 C,0,-0.8239106169,-6.5807665537,-0.8295552791
 C,0,-0.2452670215,-5.2956954488,-0.8425639092
 C,0,1.191986609,-5.16214727,-0.7419932742
 C,0,1.9546479424,-6.2931143978,-0.6396941605
 C,0,1.8231307316,-3.7952872701,-0.753966572
 N,0,-1.0028025322,-4.1840779247,-0.9628459869
 C,0,-2.464530924,-4.1447149463,-0.9935885844
 C,0,-3.0997242332,-4.2989501277,0.3913150387
 N,0,-0.6340700592,-13.6291456193,-0.4881106211
 C,0,-2.0852258655,-13.7629021745,-0.6068153855
 C,0,-2.4916050197,-15.2301749036,-0.5502171373
 C,0,2.2158886875,-13.7794061204,-0.2351593658
 C,0,3.653131688,-8.4409369255,2.0500449229
 O,0,2.4519413444,-8.5720316989,2.1837073003
 O,0,4.4815668969,-8.1873462103,3.0705160651
 C,0,3.8848373844,-8.0778541728,4.3947071775
 C,0,5.0110713727,-7.8332138464,5.3750323568
 H,0,-1.7154687997,-11.1856630097,-0.6974672086
 H,0,3.2313601471,-11.2801819131,-0.2902882282
 H,0,6.3243843828,-8.3494940864,1.6045923249
 H,0,7.5189887435,-8.5410524545,-0.5516119119
 H,0,6.2249976488,-8.8485931772,-2.6542736365
 H,0,3.7568491639,-8.9582846773,-2.5769231185
 H,0,-1.8924765591,-6.7243611358,-0.8936086232
 H,0,3.0309195673,-6.1971722618,-0.5652879192
 H,0,2.9068101084,-3.8712519328,-0.6658134156
 H,0,1.6012893799,-3.2583846943,-1.6827778576
 H,0,1.4646303436,-3.1787815259,0.0778217997
 H,0,-2.8264061897,-4.9169317242,-1.6770756789
 H,0,-2.7423346999,-3.1850164602,-1.4311771511
 H,0,-4.1888500979,-4.2654020849,0.3071610182
 H,0,-2.8208004193,-5.2494367389,0.8513030769
 H,0,-2.778472195,-3.4906209892,1.0524454749
 H,0,-0.1074481052,-14.4848768903,-0.4044434575
 H,0,-2.4133814108,-13.3146747046,-1.5511293317
 H,0,-2.5665638453,-13.2061221833,0.2045069175
 H,0,-3.575735342,-15.3166943991,-0.6404633347
 H,0,-2.0364841554,-15.7958592299,-1.367580818
 H,0,-2.1919799338,-15.6843170011,0.3979968868
 H,0,1.8957301002,-14.3282442864,0.6571624154
 H,0,2.0450787479,-14.4280442562,-1.1012233687
 H,0,3.2897434471,-13.6117264415,-0.1537546389
 H,0,3.3466223912,-9.0037866002,4.6069897672
 H,0,3.1651635002,-7.2567825518,4.3792601169
 H,0,4.6005338008,-7.7455576012,6.3838501831
 H,0,5.7235789565,-8.6609117762,5.3633996402
 H,0,5.5415951563,-6.9085422347,5.1373598181
 H,0,-0.5356355409,-3.2926617382,-0.9114407274
 Recover connectivity data from disk.
 NAtoms=     64 NQM=       64 NQMF=       0 NMMI=      0 NMMIF=      0
                NMic=       0 NMicF=      0.
                    Isotopes and Nuclear Properties:
 (Nuclear quadrupole moments (NQMom) in fm**2, nuclear magnetic moments (NMagM)
  in nuclear magnetons)

  Atom         1           2           3           4           5           6           7           8           9          10
 IAtWgt=          12          12          12          12          12          12          16          12          12          12
 AtmWgt=  12.0000000  12.0000000  12.0000000  12.0000000  12.0000000  12.0000000  15.9949146  12.0000000  12.0000000  12.0000000
 NucSpn=           0           0           0           0           0           0           0           0           0           0
 AtZEff=  -3.6000000  -3.6000000  -3.6000000  -3.6000000  -3.6000000  -3.6000000  -5.6000000  -3.6000000  -3.6000000  -3.6000000
 NQMom=    0.0000000   0.0000000   0.0000000   0.0000000   0.0000000   0.0000000   0.0000000   0.0000000   0.0000000   0.0000000
 NMagM=    0.0000000   0.0000000   0.0000000   0.0000000   0.0000000   0.0000000   0.0000000   0.0000000   0.0000000   0.0000000
 AtZNuc=   6.0000000   6.0000000   6.0000000   6.0000000   6.0000000   6.0000000   8.0000000   6.0000000   6.0000000   6.0000000

  Atom        11          12          13          14          15          16          17          18          19          20
 IAtWgt=          12          12          12          12          12          12          12          12          12          12
 AtmWgt=  12.0000000  12.0000000  12.0000000  12.0000000  12.0000000  12.0000000  12.0000000  12.0000000  12.0000000  12.0000000
 NucSpn=           0           0           0           0           0           0           0           0           0           0
 AtZEff=  -3.6000000  -3.6000000  -3.6000000  -3.6000000  -3.6000000  -3.6000000  -3.6000000  -3.6000000  -3.6000000  -3.6000000
 NQMom=    0.0000000   0.0000000   0.0000000   0.0000000   0.0000000   0.0000000   0.0000000   0.0000000   0.0000000   0.0000000
 NMagM=    0.0000000   0.0000000   0.0000000   0.0000000   0.0000000   0.0000000   0.0000000   0.0000000   0.0000000   0.0000000
 AtZNuc=   6.0000000   6.0000000   6.0000000   6.0000000   6.0000000   6.0000000   6.0000000   6.0000000   6.0000000   6.0000000

  Atom        21          22          23          24          25          26          27          28          29          30
 IAtWgt=          12          14          12          12          14          12          12          12          12          16
 AtmWgt=  12.0000000  14.0030740  12.0000000  12.0000000  14.0030740  12.0000000  12.0000000  12.0000000  12.0000000  15.9949146
 NucSpn=           0           2           0           0           2           0           0           0           0           0
 AtZEff=  -3.6000000  -4.5500000  -3.6000000  -3.6000000  -4.5500000  -3.6000000  -3.6000000  -3.6000000  -3.6000000  -5.6000000
 NQMom=    0.0000000   2.0440000   0.0000000   0.0000000   2.0440000   0.0000000   0.0000000   0.0000000   0.0000000   0.0000000
 NMagM=    0.0000000   0.4037610   0.0000000   0.0000000   0.4037610   0.0000000   0.0000000   0.0000000   0.0000000   0.0000000
 AtZNuc=   6.0000000   7.0000000   6.0000000   6.0000000   7.0000000   6.0000000   6.0000000   6.0000000   6.0000000   8.0000000

  Atom        31          32          33          34          35          36          37          38          39          40
 IAtWgt=          16          12          12           1           1           1           1           1           1           1
 AtmWgt=  15.9949146  12.0000000  12.0000000   1.0078250   1.0078250   1.0078250   1.0078250   1.0078250   1.0078250   1.0078250
 NucSpn=           0           0           0           1           1           1           1           1           1           1
 AtZEff=  -5.6000000  -3.6000000  -3.6000000  -1.0000000  -1.0000000  -1.0000000  -1.0000000  -1.0000000  -1.0000000  -1.0000000
 NQMom=    0.0000000   0.0000000   0.0000000   0.0000000   0.0000000   0.0000000   0.0000000   0.0000000   0.0000000   0.0000000
 NMagM=    0.0000000   0.0000000   0.0000000   2.7928460   2.7928460   2.7928460   2.7928460   2.7928460   2.7928460   2.7928460
 AtZNuc=   8.0000000   6.0000000   6.0000000   1.0000000   1.0000000   1.0000000   1.0000000   1.0000000   1.0000000   1.0000000

  Atom        41          42          43          44          45          46          47          48          49          50
 IAtWgt=           1           1           1           1           1           1           1           1           1           1
 AtmWgt=   1.0078250   1.0078250   1.0078250   1.0078250   1.0078250   1.0078250   1.0078250   1.0078250   1.0078250   1.0078250
 NucSpn=           1           1           1           1           1           1           1           1           1           1
 AtZEff=  -1.0000000  -1.0000000  -1.0000000  -1.0000000  -1.0000000  -1.0000000  -1.0000000  -1.0000000  -1.0000000  -1.0000000
 NQMom=    0.0000000   0.0000000   0.0000000   0.0000000   0.0000000   0.0000000   0.0000000   0.0000000   0.0000000   0.0000000
 NMagM=    2.7928460   2.7928460   2.7928460   2.7928460   2.7928460   2.7928460   2.7928460   2.7928460   2.7928460   2.7928460
 AtZNuc=   1.0000000   1.0000000   1.0000000   1.0000000   1.0000000   1.0000000   1.0000000   1.0000000   1.0000000   1.0000000

  Atom        51          52          53          54          55          56          57          58          59          60
 IAtWgt=           1           1           1           1           1           1           1           1           1           1
 AtmWgt=   1.0078250   1.0078250   1.0078250   1.0078250   1.0078250   1.0078250   1.0078250   1.0078250   1.0078250   1.0078250
 NucSpn=           1           1           1           1           1           1           1           1           1           1
 AtZEff=  -1.0000000  -1.0000000  -1.0000000  -1.0000000  -1.0000000  -1.0000000  -1.0000000  -1.0000000  -1.0000000  -1.0000000
 NQMom=    0.0000000   0.0000000   0.0000000   0.0000000   0.0000000   0.0000000   0.0000000   0.0000000   0.0000000   0.0000000
 NMagM=    2.7928460   2.7928460   2.7928460   2.7928460   2.7928460   2.7928460   2.7928460   2.7928460   2.7928460   2.7928460
 AtZNuc=   1.0000000   1.0000000   1.0000000   1.0000000   1.0000000   1.0000000   1.0000000   1.0000000   1.0000000   1.0000000

  Atom        61          62          63          64
 IAtWgt=           1           1           1           1
 AtmWgt=   1.0078250   1.0078250   1.0078250   1.0078250
 NucSpn=           1           1           1           1
 AtZEff=  -1.0000000  -1.0000000  -1.0000000  -1.0000000
 NQMom=    0.0000000   0.0000000   0.0000000   0.0000000
 NMagM=    2.7928460   2.7928460   2.7928460   2.7928460
 AtZNuc=   1.0000000   1.0000000   1.0000000   1.0000000
 Leave Link  101 at Sat May  2 11:00:14 2020, MaxMem=  6710886400 cpu:         6.1
 (Enter /opt/sys/apps/gaussian09/D.01/g09/l202.exe)
 Symmetry turned off by external request.
 Stoichiometry    C28H31N2O3(1+)
 Framework group  C1[X(C28H31N2O3)]
 Deg. of freedom   186
 Full point group                 C1      NOp   1
                          Input orientation:                          
 ---------------------------------------------------------------------
 Center     Atomic      Atomic             Coordinates (Angstroms)
 Number     Number       Type             X           Y           Z
 ---------------------------------------------------------------------
      1          6           0        1.482131  -12.471956   -0.370660
      2          6           0        0.040617  -12.461404   -0.492069
      3          6           0       -0.639741  -11.232661   -0.609990
      4          6           0        2.152105  -11.279600   -0.380873
      5          6           0        1.491257  -10.023911   -0.503312
      6          6           0        0.076381  -10.054428   -0.610572
      7          8           0       -0.637831   -8.902545   -0.715278
      8          6           0        2.148016   -8.781901   -0.495969
      9          6           0        3.637669   -8.719263   -0.448071
     10          6           0        4.368383   -8.545082    0.742852
     11          6           0        5.767289   -8.481577    0.687317
     12          6           0        6.437102   -8.589960   -0.525885
     13          6           0        5.712397   -8.762955   -1.703428
     14          6           0        4.321742   -8.826832   -1.661672
     15          6           0        1.395645   -7.602560   -0.625072
     16          6           0       -0.016847   -7.692907   -0.725418
     17          6           0       -0.823911   -6.580767   -0.829555
     18          6           0       -0.245267   -5.295695   -0.842564
     19          6           0        1.191987   -5.162147   -0.741993
     20          6           0        1.954648   -6.293114   -0.639694
     21          6           0        1.823131   -3.795287   -0.753967
     22          7           0       -1.002803   -4.184078   -0.962846
     23          6           0       -2.464531   -4.144715   -0.993589
     24          6           0       -3.099724   -4.298950    0.391315
     25          7           0       -0.634070  -13.629146   -0.488111
     26          6           0       -2.085226  -13.762902   -0.606815
     27          6           0       -2.491605  -15.230175   -0.550217
     28          6           0        2.215889  -13.779406   -0.235159
     29          6           0        3.653132   -8.440937    2.050045
     30          8           0        2.451941   -8.572032    2.183707
     31          8           0        4.481567   -8.187346    3.070516
     32          6           0        3.884837   -8.077854    4.394707
     33          6           0        5.011071   -7.833214    5.375032
     34          1           0       -1.715469  -11.185663   -0.697467
     35          1           0        3.231360  -11.280182   -0.290288
     36          1           0        6.324384   -8.349494    1.604592
     37          1           0        7.518989   -8.541052   -0.551612
     38          1           0        6.224998   -8.848593   -2.654274
     39          1           0        3.756849   -8.958285   -2.576923
     40          1           0       -1.892477   -6.724361   -0.893609
     41          1           0        3.030920   -6.197172   -0.565288
     42          1           0        2.906810   -3.871252   -0.665813
     43          1           0        1.601289   -3.258385   -1.682778
     44          1           0        1.464630   -3.178782    0.077822
     45          1           0       -2.826406   -4.916932   -1.677076
     46          1           0       -2.742335   -3.185016   -1.431177
     47          1           0       -4.188850   -4.265402    0.307161
     48          1           0       -2.820800   -5.249437    0.851303
     49          1           0       -2.778472   -3.490621    1.052445
     50          1           0       -0.107448  -14.484877   -0.404443
     51          1           0       -2.413381  -13.314675   -1.551129
     52          1           0       -2.566564  -13.206122    0.204507
     53          1           0       -3.575735  -15.316694   -0.640463
     54          1           0       -2.036484  -15.795859   -1.367581
     55          1           0       -2.191980  -15.684317    0.397997
     56          1           0        1.895730  -14.328244    0.657162
     57          1           0        2.045079  -14.428044   -1.101223
     58          1           0        3.289743  -13.611726   -0.153755
     59          1           0        3.346622   -9.003787    4.606990
     60          1           0        3.165164   -7.256783    4.379260
     61          1           0        4.600534   -7.745558    6.383850
     62          1           0        5.723579   -8.660912    5.363400
     63          1           0        5.541595   -6.908542    5.137360
     64          1           0       -0.535636   -3.292662   -0.911441
 ---------------------------------------------------------------------
 Rotational constants (GHZ):      0.1197494      0.0998390      0.0682633
 Leave Link  202 at Sat May  2 11:00:14 2020, MaxMem=  6710886400 cpu:         0.1
 (Enter /opt/sys/apps/gaussian09/D.01/g09/l301.exe)
 Standard basis: 6-311++G(d,p) (5D, 7F)
 Ernie: Thresh=  0.10000D-02 Tol=  0.10000D-05 Strict=F.
   943 basis functions,  1467 primitive gaussians,   976 cartesian basis functions
   118 alpha electrons      118 beta electrons
       nuclear repulsion energy      3331.9067404612 Hartrees.
 IExCor=20419 DFT=T Ex+Corr=CAM-B3LYP ExCW=0 ScaHFX=  1.000000
 ScaDFX=  1.000000  1.000000  1.000000  0.810000 ScalE2=  1.000000  1.000000
 IRadAn=      0 IRanWt=     -1 IRanGd=            0 ICorTp=0 IEmpDi=131
  HFx wShort=  0.000000 wLong=  0.330000 cFull=  0.190000 cShort=  0.000000 cLong=  0.810000
  DFx wShort=  0.000000 wLong=  0.330000 cFull=  0.190000 cShort=  0.000000 cLong=  0.810000
 NAtoms=   64 NActive=   64 NUniq=   64 SFac= 1.00D+00 NAtFMM=   60 NAOKFM=T Big=T
 Integral buffers will be    131072 words long.
 Raffenetti 1 integral format.
 Two-electron integral symmetry is turned off.
 R6Disp:  Grimme-D3 Dispersion energy=       -0.0468804977 Hartrees.
 Nuclear repulsion after empirical dispersion term =     3331.8598599635 Hartrees.
 ------------------------------------------------------------------------------
 Polarizable Continuum Model (PCM)
 =================================
 Model                : C-PCM.
 Atomic radii         : UFF (Universal Force Field).
 Polarization charges : Total charges.
 Charge compensation  : None.
 Solution method      : On-the-fly selection.
 Cavity type          : Scaled VdW (van der Waals Surface) (Alpha=1.100).
 Cavity algorithm     : GePol (No added spheres)
                        Default sphere list used, NSphG=   64.
                        Lebedev-Laikov grids with approx.  5.0 points / Ang**2.
                        Smoothing algorithm: Karplus/York (Gamma=1.0000).
                        Polarization charges: spherical gaussians, with
                                              point-specific exponents (IZeta= 3).
                        Self-potential: point-specific (ISelfS= 7).
                        Self-field    : sphere-specific E.n sum rule (ISelfD= 2).
 1st derivatives      : Analytical E(r).r(x)/FMM algorithm (CHGder, D1EAlg=3).
                        Cavity 1st derivative terms included.
 Solvent              : Water, Eps=  78.355300 Eps(inf)=   1.777849
 ------------------------------------------------------------------------------
 GePol: Number of generator spheres                  =      64
 GePol: Total number of spheres                      =      64
 GePol: Number of exposed spheres                    =      64 (100.00%)
 GePol: Number of points                             =    4505
 GePol: Average weight of points                     =       0.13
 GePol: Minimum weight of points                     =   0.46D-11
 GePol: Maximum weight of points                     =    0.20577
 GePol: Number of points with low weight             =     339
 GePol: Fraction of low-weight points (<1% of avg)   =       7.52%
 GePol: Cavity surface area                          =    567.829 Ang**2
 GePol: Cavity volume                                =    632.752 Ang**3
 Leave Link  301 at Sat May  2 11:00:14 2020, MaxMem=  6710886400 cpu:         1.2
 (Enter /opt/sys/apps/gaussian09/D.01/g09/l302.exe)
 NPDir=0 NMtPBC=     1 NCelOv=     1 NCel=       1 NClECP=     1 NCelD=      1
         NCelK=      1 NCelE2=     1 NClLst=     1 CellRange=     0.0.
 One-electron integrals computed using PRISM.
 NBasis=   943 RedAO= T EigKep=  1.64D-06  NBF=   943
 NBsUse=   926 1.00D-06 EigRej=  9.46D-07 NBFU=   926
 Precomputing XC quadrature grid using
 IXCGrd= 4 IRadAn=           0 IRanWt=          -1 IRanGd=           0 AccXCQ= 0.00D+00.
 Generated NRdTot=       0 NPtTot=           0 NUsed=           0 NTot=          32
 NSgBfM=   935   935   935   935   935 MxSgAt=    64 MxSgA2=    64.
 Leave Link  302 at Sat May  2 11:00:16 2020, MaxMem=  6710886400 cpu:        49.6
 (Enter /opt/sys/apps/gaussian09/D.01/g09/l308.exe)
 Leave Link  308 at Sat May  2 11:00:16 2020, MaxMem=  6710886400 cpu:         4.7
 (Enter /opt/sys/apps/gaussian09/D.01/g09/l303.exe)
 DipDrv:  MaxL=1.
 Leave Link  303 at Sat May  2 11:00:16 2020, MaxMem=  6710886400 cpu:         3.5
 (Enter /opt/sys/apps/gaussian09/D.01/g09/l401.exe)
 ExpMin= 3.60D-02 ExpMax= 8.59D+03 ExpMxC= 1.30D+03 IAcc=3 IRadAn=         5 AccDes= 0.00D+00
 Harris functional with IExCor=20419 and IRadAn=       5 diagonalized for initial guess.
 HarFok:  IExCor=20419 AccDes= 0.00D+00 IRadAn=         5 IDoV= 1 UseB2=F ITyADJ=14
 ICtDFT=  3500011 ScaDFX=  1.000000  1.000000  1.000000  1.000000
 FoFCou: FMM=F IPFlag=           0 FMFlag=      100000 FMFlg1=        2001
         NFxFlg=           0 DoJE=T BraDBF=F KetDBF=T FulRan=T
         wScrn=  0.000000 ICntrl=     500 IOpCl=  0 I1Cent=   200000004 NGrid=           0
         NMat0=    1 NMatS0=      1 NMatT0=    0 NMatD0=    1 NMtDS0=    0 NMtDT0=    0
 Symmetry not used in FoFCou.
 Harris En= -1349.48284226320    
 JPrj=0 DoOrth=F DoCkMO=F.
 Leave Link  401 at Sat May  2 11:00:24 2020, MaxMem=  6710886400 cpu:       162.3
 (Enter /opt/sys/apps/gaussian09/D.01/g09/l502.exe)
 Closed shell SCF:
 Using DIIS extrapolation, IDIIS=  1040.
 Two-electron integral symmetry not used.
 IVT=     2905686 IEndB=     2905686 NGot=  6710886400 MDV=  6708950907
 LenX=  6708950907 LenY=  6707997355
 Requested convergence on RMS density matrix=1.00D-08 within 128 cycles.
 Requested convergence on MAX density matrix=1.00D-06.
 Requested convergence on             energy=1.00D-06.
 No special actions if energy rises.
 Fock matrices will be formed incrementally for  20 cycles.

 Cycle   1  Pass 1  IDiag  1:
 FoFJK:  IHMeth= 1 ICntrl=       0 DoSepK=T KAlg= 0 I1Cent=   0 FoldK=F
 IRaf=         1 NMat=   1 IRICut=       1 DoRegI=T DoRafI=F ISym2E= 0.
 FoFCou: FMM=T IPFlag=           0 FMFlag=      100000 FMFlg1=        2001
         NFxFlg=           0 DoJE=T BraDBF=F KetDBF=F FulRan=T
         wScrn=  0.000000 ICntrl=     500 IOpCl=  0 I1Cent=           0 NGrid=           0
         NMat0=    1 NMatS0=      1 NMatT0=    0 NMatD0=    1 NMtDS0=    0 NMtDT0=    0
 Symmetry not used in FoFCou.
 FMM levels:  10  Number of levels for PrismC:   9
 Inv3:  Mode=1 IEnd=    60885075.
 Iteration    1 A*A^-1 deviation from unit magnitude is 1.02D-14 for   4485.
 Iteration    1 A*A^-1 deviation from orthogonality  is 5.33D-15 for   4496   4389.
 Iteration    1 A^-1*A deviation from unit magnitude is 1.02D-14 for   4485.
 Iteration    1 A^-1*A deviation from orthogonality  is 5.34D-15 for   4499   4377.
 E= -1418.79261865465    
 DIIS: error= 4.80D-02 at cycle   1 NSaved=   1.
 NSaved= 1 IEnMin= 1 EnMin= -1418.79261865465     IErMin= 1 ErrMin= 4.80D-02
 ErrMax= 4.80D-02  0.00D+00 EMaxC= 1.00D-01 BMatC= 2.55D+00 BMatP= 2.55D+00
 IDIUse=3 WtCom= 5.20D-01 WtEn= 4.80D-01
 Coeff-Com:  0.100D+01
 Coeff-En:   0.100D+01
 Coeff:      0.100D+01
 Gap=     0.347 Goal=   None    Shift=    0.000
 GapD=    0.347 DampG=1.000 DampE=0.500 DampFc=0.5000 IDamp=-1.
 Damping current iteration by 5.00D-01
 RMSDP=8.02D-03 MaxDP=1.41D+00              OVMax= 1.61D-01

 Cycle   2  Pass 1  IDiag  1:
 RMSU=  3.86D-03    CP:  1.04D+00
 E= -1419.05140961874     Delta-E=       -0.258790964090 Rises=F Damp=T
 DIIS: error= 2.12D-02 at cycle   2 NSaved=   2.
 NSaved= 2 IEnMin= 2 EnMin= -1419.05140961874     IErMin= 2 ErrMin= 2.12D-02
 ErrMax= 2.12D-02  0.00D+00 EMaxC= 1.00D-01 BMatC= 5.08D-01 BMatP= 2.55D+00
 IDIUse=3 WtCom= 7.88D-01 WtEn= 2.12D-01
 Coeff-Com: -0.532D+00 0.153D+01
 Coeff-En:   0.000D+00 0.100D+01
 Coeff:     -0.419D+00 0.142D+01
 Gap=     0.261 Goal=   None    Shift=    0.000
 RMSDP=4.01D-03 MaxDP=6.63D-01 DE=-2.59D-01 OVMax= 1.37D-01

 Cycle   3  Pass 1  IDiag  1:
 RMSU=  3.51D-03    CP:  1.07D+00  1.48D+00
 E= -1419.24661064656     Delta-E=       -0.195201027823 Rises=F Damp=F
 DIIS: error= 1.21D-02 at cycle   3 NSaved=   3.
 NSaved= 3 IEnMin= 3 EnMin= -1419.24661064656     IErMin= 3 ErrMin= 1.21D-02
 ErrMax= 1.21D-02  0.00D+00 EMaxC= 1.00D-01 BMatC= 1.10D-01 BMatP= 5.08D-01
 IDIUse=3 WtCom= 8.79D-01 WtEn= 1.21D-01
 Coeff-Com: -0.311D+00 0.674D+00 0.636D+00
 Coeff-En:   0.000D+00 0.000D+00 0.100D+01
 Coeff:     -0.273D+00 0.593D+00 0.680D+00
 Gap=     0.251 Goal=   None    Shift=    0.000
 RMSDP=1.77D-03 MaxDP=2.24D-01 DE=-1.95D-01 OVMax= 5.02D-02

 Cycle   4  Pass 1  IDiag  1:
 RMSU=  7.85D-04    CP:  1.03D+00  1.73D+00  8.06D-01
 E= -1419.31915847531     Delta-E=       -0.072547828747 Rises=F Damp=F
 DIIS: error= 3.51D-03 at cycle   4 NSaved=   4.
 NSaved= 4 IEnMin= 4 EnMin= -1419.31915847531     IErMin= 4 ErrMin= 3.51D-03
 ErrMax= 3.51D-03  0.00D+00 EMaxC= 1.00D-01 BMatC= 7.97D-03 BMatP= 1.10D-01
 IDIUse=3 WtCom= 9.65D-01 WtEn= 3.51D-02
 Coeff-Com: -0.116D+00 0.247D+00 0.343D+00 0.526D+00
 Coeff-En:   0.000D+00 0.000D+00 0.000D+00 0.100D+01
 Coeff:     -0.112D+00 0.238D+00 0.331D+00 0.542D+00
 Gap=     0.249 Goal=   None    Shift=    0.000
 RMSDP=5.09D-04 MaxDP=7.03D-02 DE=-7.25D-02 OVMax= 9.54D-03

 Cycle   5  Pass 1  IDiag  1:
 RMSU=  2.71D-04    CP:  1.04D+00  1.74D+00  8.33D-01  6.49D-01
 E= -1419.32436363379     Delta-E=       -0.005205158476 Rises=F Damp=F
 DIIS: error= 4.07D-04 at cycle   5 NSaved=   5.
 NSaved= 5 IEnMin= 5 EnMin= -1419.32436363379     IErMin= 5 ErrMin= 4.07D-04
 ErrMax= 4.07D-04  0.00D+00 EMaxC= 1.00D-01 BMatC= 1.43D-04 BMatP= 7.97D-03
 IDIUse=3 WtCom= 9.96D-01 WtEn= 4.07D-03
 Coeff-Com:  0.146D-01-0.326D-01-0.333D-02 0.945D-01 0.927D+00
 Coeff-En:   0.000D+00 0.000D+00 0.000D+00 0.000D+00 0.100D+01
 Coeff:      0.145D-01-0.325D-01-0.332D-02 0.941D-01 0.927D+00
 Gap=     0.251 Goal=   None    Shift=    0.000
 RMSDP=2.22D-04 MaxDP=3.17D-02 DE=-5.21D-03 OVMax= 6.75D-03

 Cycle   6  Pass 1  IDiag  1:
 RMSU=  1.09D-04    CP:  1.03D+00  1.77D+00  8.51D-01  7.11D-01  1.37D+00
 E= -1419.32457626389     Delta-E=       -0.000212630104 Rises=F Damp=F
 DIIS: error= 3.01D-04 at cycle   6 NSaved=   6.
 NSaved= 6 IEnMin= 6 EnMin= -1419.32457626389     IErMin= 6 ErrMin= 3.01D-04
 ErrMax= 3.01D-04  0.00D+00 EMaxC= 1.00D-01 BMatC= 5.69D-05 BMatP= 1.43D-04
 IDIUse=3 WtCom= 9.97D-01 WtEn= 3.01D-03
 Coeff-Com:  0.223D-01-0.482D-01-0.468D-01-0.329D-01 0.457D+00 0.648D+00
 Coeff-En:   0.000D+00 0.000D+00 0.000D+00 0.000D+00 0.000D+00 0.100D+01
 Coeff:      0.222D-01-0.480D-01-0.466D-01-0.328D-01 0.456D+00 0.649D+00
 Gap=     0.252 Goal=   None    Shift=    0.000
 RMSDP=7.59D-05 MaxDP=9.03D-03 DE=-2.13D-04 OVMax= 2.58D-03

 Cycle   7  Pass 1  IDiag  1:
 RMSU=  3.57D-05    CP:  1.03D+00  1.77D+00  8.53D-01  7.22D-01  1.48D+00
                    CP:  1.07D+00
 E= -1419.32463844877     Delta-E=       -0.000062184879 Rises=F Damp=F
 DIIS: error= 7.58D-05 at cycle   7 NSaved=   7.
 NSaved= 7 IEnMin= 7 EnMin= -1419.32463844877     IErMin= 7 ErrMin= 7.58D-05
 ErrMax= 7.58D-05  0.00D+00 EMaxC= 1.00D-01 BMatC= 3.43D-06 BMatP= 5.69D-05
 IDIUse=1 WtCom= 1.00D+00 WtEn= 0.00D+00
 Coeff-Com:  0.367D-02-0.771D-02-0.114D-01-0.216D-01-0.673D-02 0.152D+00
 Coeff-Com:  0.891D+00
 Coeff:      0.367D-02-0.771D-02-0.114D-01-0.216D-01-0.673D-02 0.152D+00
 Coeff:      0.891D+00
 Gap=     0.252 Goal=   None    Shift=    0.000
 RMSDP=2.43D-05 MaxDP=2.27D-03 DE=-6.22D-05 OVMax= 1.88D-03

 Cycle   8  Pass 1  IDiag  1:
 RMSU=  1.04D-05    CP:  1.03D+00  1.77D+00  8.51D-01  7.19D-01  1.53D+00
                    CP:  1.14D+00  1.22D+00
 E= -1419.32464694681     Delta-E=       -0.000008498038 Rises=F Damp=F
 DIIS: error= 3.03D-05 at cycle   8 NSaved=   8.
 NSaved= 8 IEnMin= 8 EnMin= -1419.32464694681     IErMin= 8 ErrMin= 3.03D-05
 ErrMax= 3.03D-05  0.00D+00 EMaxC= 1.00D-01 BMatC= 9.18D-07 BMatP= 3.43D-06
 IDIUse=1 WtCom= 1.00D+00 WtEn= 0.00D+00
 Coeff-Com: -0.279D-02 0.610D-02 0.477D-02-0.235D-02-0.813D-01-0.620D-01
 Coeff-Com:  0.332D+00 0.806D+00
 Coeff:     -0.279D-02 0.610D-02 0.477D-02-0.235D-02-0.813D-01-0.620D-01
 Coeff:      0.332D+00 0.806D+00
 Gap=     0.252 Goal=   None    Shift=    0.000
 RMSDP=9.54D-06 MaxDP=8.83D-04 DE=-8.50D-06 OVMax= 8.97D-04

 Cycle   9  Pass 1  IDiag  1:
 RMSU=  5.65D-06    CP:  1.03D+00  1.78D+00  8.50D-01  7.19D-01  1.53D+00
                    CP:  1.16D+00  1.37D+00  1.26D+00
 E= -1419.32464886478     Delta-E=       -0.000001917972 Rises=F Damp=F
 DIIS: error= 1.40D-05 at cycle   9 NSaved=   9.
 NSaved= 9 IEnMin= 9 EnMin= -1419.32464886478     IErMin= 9 ErrMin= 1.40D-05
 ErrMax= 1.40D-05  0.00D+00 EMaxC= 1.00D-01 BMatC= 1.37D-07 BMatP= 9.18D-07
 IDIUse=1 WtCom= 1.00D+00 WtEn= 0.00D+00
 Coeff-Com: -0.123D-02 0.263D-02 0.309D-02 0.221D-02-0.167D-01-0.446D-01
 Coeff-Com: -0.758D-01 0.214D+00 0.916D+00
 Coeff:     -0.123D-02 0.263D-02 0.309D-02 0.221D-02-0.167D-01-0.446D-01
 Coeff:     -0.758D-01 0.214D+00 0.916D+00
 Gap=     0.252 Goal=   None    Shift=    0.000
 RMSDP=5.66D-06 MaxDP=8.42D-04 DE=-1.92D-06 OVMax= 4.22D-04

 Cycle  10  Pass 1  IDiag  1:
 RMSU=  3.11D-06    CP:  1.03D+00  1.78D+00  8.50D-01  7.18D-01  1.53D+00
                    CP:  1.15D+00  1.45D+00  1.45D+00  1.15D+00
 E= -1419.32464923241     Delta-E=       -0.000000367632 Rises=F Damp=F
 DIIS: error= 6.13D-06 at cycle  10 NSaved=  10.
 NSaved=10 IEnMin=10 EnMin= -1419.32464923241     IErMin=10 ErrMin= 6.13D-06
 ErrMax= 6.13D-06  0.00D+00 EMaxC= 1.00D-01 BMatC= 1.88D-08 BMatP= 1.37D-07
 IDIUse=1 WtCom= 1.00D+00 WtEn= 0.00D+00
 Coeff-Com:  0.121D-03-0.274D-03 0.486D-04 0.590D-03 0.789D-02-0.453D-02
 Coeff-Com: -0.718D-01-0.542D-01 0.281D+00 0.841D+00
 Coeff:      0.121D-03-0.274D-03 0.486D-04 0.590D-03 0.789D-02-0.453D-02
 Coeff:     -0.718D-01-0.542D-01 0.281D+00 0.841D+00
 Gap=     0.252 Goal=   None    Shift=    0.000
 RMSDP=1.75D-06 MaxDP=1.22D-04 DE=-3.68D-07 OVMax= 1.76D-04

 Cycle  11  Pass 1  IDiag  1:
 RMSU=  9.45D-07    CP:  1.03D+00  1.78D+00  8.49D-01  7.17D-01  1.53D+00
                    CP:  1.15D+00  1.46D+00  1.50D+00  1.22D+00  1.14D+00
 E= -1419.32464929135     Delta-E=       -0.000000058939 Rises=F Damp=F
 DIIS: error= 3.42D-06 at cycle  11 NSaved=  11.
 NSaved=11 IEnMin=11 EnMin= -1419.32464929135     IErMin=11 ErrMin= 3.42D-06
 ErrMax= 3.42D-06  0.00D+00 EMaxC= 1.00D-01 BMatC= 3.26D-09 BMatP= 1.88D-08
 IDIUse=1 WtCom= 1.00D+00 WtEn= 0.00D+00
 Coeff-Com:  0.196D-03-0.420D-03-0.429D-03-0.144D-03 0.406D-02 0.522D-02
 Coeff-Com: -0.306D-02-0.414D-01-0.922D-01 0.188D+00 0.941D+00
 Coeff:      0.196D-03-0.420D-03-0.429D-03-0.144D-03 0.406D-02 0.522D-02
 Coeff:     -0.306D-02-0.414D-01-0.922D-01 0.188D+00 0.941D+00
 Gap=     0.252 Goal=   None    Shift=    0.000
 RMSDP=1.11D-06 MaxDP=1.46D-04 DE=-5.89D-08 OVMax= 5.84D-05

 Cycle  12  Pass 1  IDiag  1:
 RMSU=  3.97D-07    CP:  1.03D+00  1.77D+00  8.49D-01  7.17D-01  1.53D+00
                    CP:  1.15D+00  1.46D+00  1.50D+00  1.22D+00  1.37D+00
                    CP:  1.40D+00
 E= -1419.32464930366     Delta-E=       -0.000000012308 Rises=F Damp=F
 DIIS: error= 1.80D-06 at cycle  12 NSaved=  12.
 NSaved=12 IEnMin=12 EnMin= -1419.32464930366     IErMin=12 ErrMin= 1.80D-06
 ErrMax= 1.80D-06  0.00D+00 EMaxC= 1.00D-01 BMatC= 5.15D-10 BMatP= 3.26D-09
 IDIUse=1 WtCom= 1.00D+00 WtEn= 0.00D+00
 Coeff-Com:  0.138D-04-0.277D-04-0.871D-04-0.107D-03-0.676D-03 0.204D-02
 Coeff-Com:  0.139D-01 0.388D-02-0.827D-01-0.101D+00 0.180D+00 0.985D+00
 Coeff:      0.138D-04-0.277D-04-0.871D-04-0.107D-03-0.676D-03 0.204D-02
 Coeff:      0.139D-01 0.388D-02-0.827D-01-0.101D+00 0.180D+00 0.985D+00
 Gap=     0.252 Goal=   None    Shift=    0.000
 RMSDP=7.34D-07 MaxDP=8.27D-05 DE=-1.23D-08 OVMax= 3.36D-05

 Cycle  13  Pass 1  IDiag  1:
 RMSU=  2.61D-07    CP:  1.03D+00  1.77D+00  8.49D-01  7.16D-01  1.53D+00
                    CP:  1.15D+00  1.46D+00  1.49D+00  1.19D+00  1.49D+00
                    CP:  1.66D+00  1.50D+00
 E= -1419.32464930647     Delta-E=       -0.000000002809 Rises=F Damp=F
 DIIS: error= 6.78D-07 at cycle  13 NSaved=  13.
 NSaved=13 IEnMin=13 EnMin= -1419.32464930647     IErMin=13 ErrMin= 6.78D-07
 ErrMax= 6.78D-07  0.00D+00 EMaxC= 1.00D-01 BMatC= 1.22D-10 BMatP= 5.15D-10
 IDIUse=1 WtCom= 1.00D+00 WtEn= 0.00D+00
 Coeff-Com: -0.242D-04 0.524D-04 0.489D-04-0.169D-04-0.763D-03-0.520D-03
 Coeff-Com:  0.217D-02 0.797D-02-0.150D-02-0.405D-01-0.164D+00 0.170D+00
 Coeff-Com:  0.103D+01
 Coeff:     -0.242D-04 0.524D-04 0.489D-04-0.169D-04-0.763D-03-0.520D-03
 Coeff:      0.217D-02 0.797D-02-0.150D-02-0.405D-01-0.164D+00 0.170D+00
 Coeff:      0.103D+01
 Gap=     0.252 Goal=   None    Shift=    0.000
 RMSDP=4.93D-07 MaxDP=5.39D-05 DE=-2.81D-09 OVMax= 1.82D-05

 Cycle  14  Pass 1  IDiag  1:
 RMSU=  7.92D-08    CP:  1.03D+00  1.77D+00  8.49D-01  7.16D-01  1.53D+00
                    CP:  1.15D+00  1.45D+00  1.49D+00  1.17D+00  1.55D+00
                    CP:  1.77D+00  1.91D+00  1.60D+00
 E= -1419.32464930708     Delta-E=       -0.000000000610 Rises=F Damp=F
 DIIS: error= 2.72D-07 at cycle  14 NSaved=  14.
 NSaved=14 IEnMin=14 EnMin= -1419.32464930708     IErMin=14 ErrMin= 2.72D-07
 ErrMax= 2.72D-07  0.00D+00 EMaxC= 1.00D-01 BMatC= 2.36D-11 BMatP= 1.22D-10
 IDIUse=1 WtCom= 1.00D+00 WtEn= 0.00D+00
 Coeff-Com: -0.666D-05 0.142D-04 0.248D-04 0.321D-05-0.885D-04-0.412D-03
 Coeff-Com: -0.165D-02 0.228D-02 0.133D-01 0.677D-02-0.842D-01-0.107D+00
 Coeff-Com:  0.320D+00 0.851D+00
 Coeff:     -0.666D-05 0.142D-04 0.248D-04 0.321D-05-0.885D-04-0.412D-03
 Coeff:     -0.165D-02 0.228D-02 0.133D-01 0.677D-02-0.842D-01-0.107D+00
 Coeff:      0.320D+00 0.851D+00
 Gap=     0.252 Goal=   None    Shift=    0.000
 RMSDP=1.60D-07 MaxDP=2.01D-05 DE=-6.10D-10 OVMax= 5.80D-06

 Cycle  15  Pass 1  IDiag  1:
 RMSU=  3.85D-08    CP:  1.03D+00  1.77D+00  8.49D-01  7.16D-01  1.53D+00
                    CP:  1.15D+00  1.45D+00  1.48D+00  1.16D+00  1.56D+00
                    CP:  1.81D+00  2.08D+00  1.81D+00  1.19D+00
 E= -1419.32464930733     Delta-E=       -0.000000000252 Rises=F Damp=F
 DIIS: error= 9.30D-08 at cycle  15 NSaved=  15.
 NSaved=15 IEnMin=15 EnMin= -1419.32464930733     IErMin=15 ErrMin= 9.30D-08
 ErrMax= 9.30D-08  0.00D+00 EMaxC= 1.00D-01 BMatC= 3.45D-12 BMatP= 2.36D-11
 IDIUse=1 WtCom= 1.00D+00 WtEn= 0.00D+00
 Coeff-Com:  0.154D-05-0.341D-05 0.747D-07 0.651D-05 0.892D-04-0.233D-04
 Coeff-Com: -0.856D-03-0.818D-03 0.346D-02 0.881D-02 0.107D-01-0.591D-01
 Coeff-Com: -0.130D+00 0.238D+00 0.930D+00
 Coeff:      0.154D-05-0.341D-05 0.747D-07 0.651D-05 0.892D-04-0.233D-04
 Coeff:     -0.856D-03-0.818D-03 0.346D-02 0.881D-02 0.107D-01-0.591D-01
 Coeff:     -0.130D+00 0.238D+00 0.930D+00
 Gap=     0.252 Goal=   None    Shift=    0.000
 RMSDP=9.48D-08 MaxDP=8.21D-06 DE=-2.52D-10 OVMax= 3.07D-06

 Cycle  16  Pass 1  IDiag  1:
 RMSU=  1.99D-08    CP:  1.03D+00  1.77D+00  8.49D-01  7.16D-01  1.53D+00
                    CP:  1.15D+00  1.45D+00  1.48D+00  1.16D+00  1.57D+00
                    CP:  1.82D+00  2.15D+00  1.94D+00  1.43D+00  1.32D+00
 E= -1419.32464930708     Delta-E=        0.000000000256 Rises=F Damp=F
 DIIS: error= 2.26D-08 at cycle  16 NSaved=  16.
 NSaved=16 IEnMin=15 EnMin= -1419.32464930733     IErMin=16 ErrMin= 2.26D-08
 ErrMax= 2.26D-08  0.00D+00 EMaxC= 1.00D-01 BMatC= 6.67D-13 BMatP= 3.45D-12
 IDIUse=1 WtCom= 1.00D+00 WtEn= 0.00D+00
 Coeff-Com:  0.828D-06-0.181D-05-0.208D-05 0.290D-05 0.360D-04 0.382D-04
 Coeff-Com: -0.661D-04-0.510D-03-0.421D-03 0.187D-02 0.136D-01-0.508D-02
 Coeff-Com: -0.793D-01-0.510D-01 0.286D+00 0.835D+00
 Coeff:      0.828D-06-0.181D-05-0.208D-05 0.290D-05 0.360D-04 0.382D-04
 Coeff:     -0.661D-04-0.510D-03-0.421D-03 0.187D-02 0.136D-01-0.508D-02
 Coeff:     -0.793D-01-0.510D-01 0.286D+00 0.835D+00
 Gap=     0.252 Goal=   None    Shift=    0.000
 RMSDP=3.24D-08 MaxDP=2.61D-06 DE= 2.56D-10 OVMax= 1.09D-06

 Cycle  17  Pass 1  IDiag  1:
 RMSU=  2.17D-08    CP:  1.03D+00  1.77D+00  8.49D-01  7.16D-01  1.53D+00
                    CP:  1.15D+00  1.45D+00  1.48D+00  1.16D+00  1.57D+00
                    CP:  1.82D+00  2.18D+00  1.98D+00  1.47D+00  1.66D+00
                    CP:  1.34D+00
 E= -1419.32464930723     Delta-E=       -0.000000000152 Rises=F Damp=F
 DIIS: error= 1.56D-08 at cycle  17 NSaved=  17.
 NSaved=17 IEnMin=15 EnMin= -1419.32464930733     IErMin=17 ErrMin= 1.56D-08
 ErrMax= 1.56D-08  0.00D+00 EMaxC= 1.00D-01 BMatC= 1.10D-13 BMatP= 6.67D-13
 IDIUse=1 WtCom= 1.00D+00 WtEn= 0.00D+00
 Coeff-Com: -0.111D-06 0.257D-06-0.618D-06-0.850D-06-0.864D-05 0.138D-04
 Coeff-Com:  0.155D-03 0.261D-04-0.826D-03-0.141D-02 0.145D-02 0.107D-01
 Coeff-Com:  0.560D-02-0.645D-01-0.789D-01 0.202D+00 0.926D+00
 Coeff:     -0.111D-06 0.257D-06-0.618D-06-0.850D-06-0.864D-05 0.138D-04
 Coeff:      0.155D-03 0.261D-04-0.826D-03-0.141D-02 0.145D-02 0.107D-01
 Coeff:      0.560D-02-0.645D-01-0.789D-01 0.202D+00 0.926D+00
 Gap=     0.252 Goal=   None    Shift=    0.000
 RMSDP=2.55D-08 MaxDP=1.83D-06 DE=-1.52D-10 OVMax= 6.68D-07

 Cycle  18  Pass 1  IDiag  1:
 RMSU=  1.22D-08    CP:  1.03D+00  1.77D+00  8.49D-01  7.16D-01  1.53D+00
                    CP:  1.15D+00  1.45D+00  1.48D+00  1.16D+00  1.57D+00
                    CP:  1.82D+00  2.19D+00  1.98D+00  1.47D+00  1.86D+00
                    CP:  1.75D+00  1.78D+00
 E= -1419.32464930689     Delta-E=        0.000000000341 Rises=F Damp=F
 DIIS: error= 9.30D-09 at cycle  18 NSaved=  18.
 NSaved=18 IEnMin=15 EnMin= -1419.32464930733     IErMin=18 ErrMin= 9.30D-09
 ErrMax= 9.30D-09  0.00D+00 EMaxC= 1.00D-01 BMatC= 4.05D-14 BMatP= 1.10D-13
 IDIUse=1 WtCom= 1.00D+00 WtEn= 0.00D+00
 Coeff-Com: -0.831D-07 0.187D-06 0.129D-08-0.103D-05-0.568D-05-0.211D-05
 Coeff-Com:  0.490D-04 0.810D-04-0.141D-03-0.612D-03-0.156D-02 0.359D-02
 Coeff-Com:  0.134D-01-0.126D-01-0.599D-01-0.900D-01 0.229D+00 0.919D+00
 Coeff:     -0.831D-07 0.187D-06 0.129D-08-0.103D-05-0.568D-05-0.211D-05
 Coeff:      0.490D-04 0.810D-04-0.141D-03-0.612D-03-0.156D-02 0.359D-02
 Coeff:      0.134D-01-0.126D-01-0.599D-01-0.900D-01 0.229D+00 0.919D+00
 Gap=     0.252 Goal=   None    Shift=    0.000
 RMSDP=4.05D-08 MaxDP=4.01D-06 DE= 3.41D-10 OVMax= 4.05D-07

 Cycle  19  Pass 1  IDiag  1:
 RMSU=  2.19D-08    CP:  1.03D+00  1.77D+00  8.49D-01  7.16D-01  1.53D+00
                    CP:  1.15D+00  1.45D+00  1.48D+00  1.16D+00  1.57D+00
                    CP:  1.82D+00  2.20D+00  1.99D+00  1.47D+00  2.10D+00
                    CP:  1.97D+00  2.81D+00  1.69D+00
 E= -1419.32464930704     Delta-E=       -0.000000000147 Rises=F Damp=F
 DIIS: error= 7.01D-09 at cycle  19 NSaved=  19.
 NSaved=19 IEnMin=15 EnMin= -1419.32464930733     IErMin=19 ErrMin= 7.01D-09
 ErrMax= 7.01D-09  0.00D+00 EMaxC= 1.00D-01 BMatC= 3.11D-14 BMatP= 4.05D-14
 IDIUse=1 WtCom= 1.00D+00 WtEn= 0.00D+00
 Coeff-Com: -0.515D-07 0.114D-06 0.458D-07-0.580D-06-0.302D-05-0.255D-05
 Coeff-Com:  0.210D-04 0.477D-04-0.404D-04-0.309D-03-0.104D-02 0.161D-02
 Coeff-Com:  0.781D-02-0.444D-02-0.315D-01-0.629D-01 0.804D-01 0.517D+00
 Coeff-Com:  0.493D+00
 Coeff:     -0.515D-07 0.114D-06 0.458D-07-0.580D-06-0.302D-05-0.255D-05
 Coeff:      0.210D-04 0.477D-04-0.404D-04-0.309D-03-0.104D-02 0.161D-02
 Coeff:      0.781D-02-0.444D-02-0.315D-01-0.629D-01 0.804D-01 0.517D+00
 Coeff:      0.493D+00
 Gap=     0.252 Goal=   None    Shift=    0.000
 RMSDP=2.41D-08 MaxDP=2.38D-06 DE=-1.47D-10 OVMax= 1.22D-07

 Cycle  20  Pass 1  IDiag  1:
 RMSU=  1.41D-08    CP:  1.03D+00  1.77D+00  8.49D-01  7.16D-01  1.53D+00
                    CP:  1.15D+00  1.45D+00  1.48D+00  1.16D+00  1.57D+00
                    CP:  1.82D+00  2.21D+00  2.00D+00  1.47D+00  2.17D+00
                    CP:  2.16D+00  3.00D+00  2.30D+00  1.51D+00
 E= -1419.32464930718     Delta-E=       -0.000000000146 Rises=F Damp=F
 DIIS: error= 8.32D-09 at cycle  20 NSaved=  20.
 NSaved=20 IEnMin=15 EnMin= -1419.32464930733     IErMin=19 ErrMin= 7.01D-09
 ErrMax= 8.32D-09  0.00D+00 EMaxC= 1.00D-01 BMatC= 4.02D-14 BMatP= 3.11D-14
 IDIUse=1 WtCom= 1.00D+00 WtEn= 0.00D+00
 Large coefficients: NSaved= 20 BigCof=    0.00 CofMax=   10.00 Det=-8.72D-15
 Inversion failed.  Reducing to 19 matrices.
 Large coefficients: NSaved= 19 BigCof=    0.00 CofMax=   10.00 Det=-8.72D-15
 Inversion failed.  Reducing to 18 matrices.
 Large coefficients: NSaved= 18 BigCof=    0.00 CofMax=   10.00 Det=-8.74D-15
 Inversion failed.  Reducing to 17 matrices.
 Large coefficients: NSaved= 17 BigCof=    0.00 CofMax=   10.00 Det=-8.98D-15
 Inversion failed.  Reducing to 16 matrices.
 Large coefficients: NSaved= 16 BigCof=    0.00 CofMax=   10.00 Det=-9.00D-15
 Inversion failed.  Reducing to 15 matrices.
 Coeff-Com: -0.811D-06 0.120D-04 0.143D-04-0.781D-04-0.220D-03-0.314D-03
 Coeff-Com:  0.162D-02 0.421D-02-0.692D-02-0.232D-01-0.412D-01 0.764D-01
 Coeff-Com:  0.470D+00 0.553D+00-0.336D-01
 Coeff:     -0.811D-06 0.120D-04 0.143D-04-0.781D-04-0.220D-03-0.314D-03
 Coeff:      0.162D-02 0.421D-02-0.692D-02-0.232D-01-0.412D-01 0.764D-01
 Coeff:      0.470D+00 0.553D+00-0.336D-01
 Gap=     0.252 Goal=   None    Shift=    0.000
 RMSDP=2.17D-09 MaxDP=2.00D-07 DE=-1.46D-10 OVMax= 1.20D-08

 Error on total polarization charges =  0.02121
 SCF Done:  E(RCAM-B3LYP) =  -1419.32464931     A.U. after   20 cycles
            NFock= 20  Conv=0.22D-08     -V/T= 2.0041
 KE= 1.413481408684D+03 PE=-9.943238485087D+03 EE= 3.778572567132D+03
 Leave Link  502 at Sat May  2 11:10:55 2020, MaxMem=  6710886400 cpu:     14633.7
 (Enter /opt/sys/apps/gaussian09/D.01/g09/l801.exe)
 DoSCS=F DFT=T ScalE2(SS,OS)=  1.000000  1.000000
 ExpMin= 3.60D-02 ExpMax= 8.59D+03 ExpMxC= 1.30D+03 IAcc=3 IRadAn=         5 AccDes= 0.00D+00
 HarFok:  IExCor=  205 AccDes= 0.00D+00 IRadAn=         5 IDoV=-2 UseB2=F ITyADJ=14
 ICtDFT= 12500011 ScaDFX=  1.000000  1.000000  1.000000  1.000000
 Largest valence mixing into a core orbital is  4.58D-05
 Largest core mixing into a valence orbital is  1.03D-05
 Range of M.O.s used for correlation:    34   926
 NBasis=   943 NAE=   118 NBE=   118 NFC=    33 NFV=     0
 NROrb=    893 NOA=    85 NOB=    85 NVA=   808 NVB=   808

 **** Warning!!: The largest alpha MO coefficient is  0.85369441D+02

 Leave Link  801 at Sat May  2 11:10:57 2020, MaxMem=  6710886400 cpu:        10.5
 (Enter /opt/sys/apps/gaussian09/D.01/g09/l914.exe)
 RHF ground state
 MDV=  6710886400 DFT=T DoStab=F Mixed=T DoRPA=T DoScal=F NonHer=T
 Would need an additional        599111800000 words for in-memory AO integral storage.
 NEqPCM:  Using non-equilibrium solvation (IEInf=1, Eps=  78.3553, EpsInf=   1.7778)
 Inv3:  Mode=1 IEnd=    60885075.
 Iteration    1 A*A^-1 deviation from unit magnitude is 1.02D-14 for   4485.
 Iteration    1 A*A^-1 deviation from orthogonality  is 5.33D-15 for   4496   4389.
 Iteration    1 A^-1*A deviation from unit magnitude is 1.02D-14 for   4485.
 Iteration    1 A^-1*A deviation from orthogonality  is 5.34D-15 for   4499   4377.
 Making orbital integer symmetry assigments:
   120 initial guesses have been made.
 Convergence on wavefunction:    0.000001000000000
 Davidson Disk Diagonalization:  ConvIn= 1.00D-06 SkipCon=T Conv= 1.00D-06.
 Max sub-space:   480 roots to seek:   120 dimension of matrix:       137360
 Iteration     1 Dimension   120 NMult     0 NNew    120
 CISAX will form   120 AO SS matrices at one time.
 NMat=   120 NSing=   120 JSym2X= 0.
 FoFJK:  IHMeth= 1 ICntrl=       0 DoSepK=T KAlg= 0 I1Cent=   0 FoldK=F
 IRaf=         1 NMat= 240 IRICut=       1 DoRegI=T DoRafI=F ISym2E= 0.
 New state      3 was old state     14
 New state      5 was old state      7
 New state      6 was old state      3
 New state      7 was old state      9
 New state      8 was old state     38
 New state      9 was old state     10
 New state     10 was old state      5
 New state     11 was old state     15
 New state     12 was old state    115
 New state     13 was old state      6
 New state     14 was old state     18
 New state     15 was old state     43
 New state     16 was old state     13
 New state     17 was old state     12
 New state     18 was old state     31
 New state     19 was old state     11
 New state     20 was old state     19
 New state     21 was old state      8
 New state     22 was old state     37
 New state     23 was old state     17
 New state     24 was old state     99
 New state     25 was old state     23
 New state     26 was old state     25
 New state     27 was old state     21
 New state     28 was old state     55
 New state     29 was old state     30
 New state     30 was old state     16
 Excitation Energies [eV] at current iteration:
 Root      1 :     3.582181290598573
 Root      2 :     4.477146502361854
 Root      3 :     5.204922060779573
 Root      4 :     5.395982892557264
 Root      5 :     5.496069103755046
 Root      6 :     5.518680289846957
 Root      7 :     5.738703701148752
 Root      8 :     5.820385311013482
 Root      9 :     5.948121830553898
 Root     10 :     5.971790752120324
 Root     11 :     6.021107481109105
 Root     12 :     6.211761804021973
 Root     13 :     6.342466007620346
 Root     14 :     6.384268225606638
 Root     15 :     6.452432186197310
 Root     16 :     6.612106507713692
 Root     17 :     6.652756064354363
 Root     18 :     6.692869034201643
 Root     19 :     6.713916854864302
 Root     20 :     6.819791967038290
 Root     21 :     6.871594244212469
 Root     22 :     6.884249366996911
 Root     23 :     7.012664334726209
 Root     24 :     7.126161052925926
 Root     25 :     7.169321345427723
 Root     26 :     7.203618228356247
 Root     27 :     7.218394966562977
 Root     28 :     7.292584561263086
 Root     29 :     7.393279595769413
 Root     30 :     7.409238475798950
 Root     31 :     7.485946983232190
 Root     32 :     7.559412166073662
 Root     33 :     7.595153698305152
 Root     34 :     7.604455281968207
 Root     35 :     7.638477368428180
 Root     36 :     7.691944042979425
 Root     37 :     7.729567615166682
 Root     38 :     7.763304860596741
 Root     39 :     7.770321294486433
 Root     40 :     7.814073411798129
 Root     41 :     7.838700381210234
 Root     42 :     7.844013437938710
 Root     43 :     7.857185873915426
 Root     44 :     7.882562596148345
 Root     45 :     7.907312960543182
 Root     46 :     7.931251357847489
 Root     47 :     7.996333123025132
 Root     48 :     8.007328063779646
 Root     49 :     8.038690266901073
 Root     50 :     8.063501386762828
 Root     51 :     8.106653399847037
 Root     52 :     8.136492504742868
 Root     53 :     8.180994549972581
 Root     54 :     8.228121018797346
 Root     55 :     8.237366716838446
 Root     56 :     8.256241042821422
 Root     57 :     8.329564747349448
 Root     58 :     8.351397424925375
 Root     59 :     8.397880127709891
 Root     60 :     8.419843119906732
 Root     61 :     8.428196769760373
 Root     62 :     8.452516498386743
 Root     63 :     8.479536177224919
 Root     64 :     8.513356080494690
 Root     65 :     8.533698659309652
 Root     66 :     8.582424131776529
 Root     67 :     8.601965502843536
 Root     68 :     8.618978948882214
 Root     69 :     8.665266803328747
 Root     70 :     8.670733132686683
 Root     71 :     8.704506571845553
 Root     72 :     8.743250225799944
 Root     73 :     8.759730026454678
 Root     74 :     8.787179338672971
 Root     75 :     8.793673715531380
 Root     76 :     8.821676220077961
 Root     77 :     8.828494678707203
 Root     78 :     8.872100263504255
 Root     79 :     8.872734927804645
 Root     80 :     8.880367070482656
 Root     81 :     8.903980762658684
 Root     82 :     8.923956520203731
 Root     83 :     8.935723408597379
 Root     84 :     8.947294757532354
 Root     85 :     8.958494972646939
 Root     86 :     8.988364256249392
 Root     87 :     9.010531125467935
 Root     88 :     9.025630816889219
 Root     89 :     9.051462502545212
 Root     90 :     9.080376955831275
 Root     91 :     9.085183387230543
 Root     92 :     9.132122965585088
 Root     93 :     9.153465575025066
 Root     94 :     9.185054979407402
 Root     95 :     9.213909173653855
 Root     96 :     9.241452139535063
 Root     97 :     9.257177491123558
 Root     98 :     9.270785149776739
 Root     99 :     9.290237318927264
 Root    100 :     9.307045900603745
 Root    101 :     9.345216031391168
 Root    102 :     9.362276535238514
 Root    103 :     9.406087295124950
 Root    104 :     9.417417219894283
 Root    105 :     9.466097722086952
 Root    106 :     9.472369532277375
 Root    107 :     9.479371439617479
 Root    108 :     9.497322880991229
 Root    109 :     9.514183933113856
 Root    110 :     9.534027278159350
 Root    111 :     9.550966442066041
 Root    112 :     9.625159072623909
 Root    113 :     9.636957422622318
 Root    114 :     9.658130963774251
 Root    115 :     9.696205474167499
 Root    116 :     9.711662152849639
 Root    117 :     9.729392247059121
 Root    118 :     9.850798153848856
 Root    119 :     9.857945209575615
 Root    120 :     9.892948170803267
 Iteration     2 Dimension   180 NMult   120 NNew     60
 CISAX will form    60 AO SS matrices at one time.
 NMat=    60 NSing=    60 JSym2X= 0.
 Root      1 not converged, maximum delta is    0.038634417321743
 Root      2 not converged, maximum delta is    0.033182440355861
 Root      3 not converged, maximum delta is    0.378607348641584
 Root      4 not converged, maximum delta is    0.384674092008136
 Root      5 not converged, maximum delta is    0.217556286040133
 Root      6 not converged, maximum delta is    0.320659833351996
 New state      7 was old state      9
 Root      7 not converged, maximum delta is    0.162150803521236
 Root      8 not converged, maximum delta is    0.302034133717182
 New state      9 was old state     12
 Root      9 not converged, maximum delta is    0.235097818731045
 Root     10 not converged, maximum delta is    0.246066399762445
 New state     11 was old state      7
 Root     11 not converged, maximum delta is    0.207551481541361
 New state     12 was old state     15
 Root     12 not converged, maximum delta is    0.333082655397811
 New state     13 was old state     11
 Root     13 not converged, maximum delta is    0.121053209770453
 Root     14 not converged, maximum delta is    0.135395484335319
 New state     15 was old state     13
 Root     15 not converged, maximum delta is    0.085637901788018
 New state     16 was old state     19
 Root     16 not converged, maximum delta is    0.292105584874020
 New state     17 was old state     18
 Root     17 not converged, maximum delta is    0.274137373101910
 New state     18 was old state     16
 Root     18 not converged, maximum delta is    0.221262691999103
 New state     19 was old state     24
 Root     19 not converged, maximum delta is    0.324323520461406
 New state     20 was old state     17
 Root     20 not converged, maximum delta is    0.246603988851298
 No map to state     21
 New state     22 was old state     21
 Root     22 not converged, maximum delta is    0.306731503927237
 New state     23 was old state     27
 Root     23 not converged, maximum delta is    0.346987690091778
 New state     24 was old state     23
 Root     24 not converged, maximum delta is    0.154558552410734
 New state     25 was old state     20
 Root     25 not converged, maximum delta is    0.204287187916118
 New state     26 was old state     25
 Root     26 not converged, maximum delta is    0.169145034739511
 New state     27 was old state     28
 Root     27 not converged, maximum delta is    0.210562120012921
 New state     28 was old state     26
 Root     28 not converged, maximum delta is    0.161670339422178
 Root     29 not converged, maximum delta is    0.185477814695507
 Root     30 not converged, maximum delta is    0.132663085607012
 Excitation Energies [eV] at current iteration:
 Root      1 :     3.040975054132069   Change is   -0.541206236466504
 Root      2 :     4.003833622057975   Change is   -0.473312880303879
 Root      3 :     4.800425179987664   Change is   -0.404496880791910
 Root      4 :     4.814355242090788   Change is   -0.581627650466475
 Root      5 :     5.128126054493547   Change is   -0.367943049261500
 Root      6 :     5.170766938507396   Change is   -0.347913351339561
 Root      7 :     5.265824572485572   Change is   -0.682297258068326
 Root      8 :     5.455061523409509   Change is   -0.365323787603972
 Root      9 :     5.478958837039801   Change is   -0.732802966982172
 Root     10 :     5.543033884586526   Change is   -0.428756867533798
 Root     11 :     5.628183623836066   Change is   -0.110520077312685
 Root     12 :     5.695186204551903   Change is   -0.757245981645407
 Root     13 :     5.787862176090880   Change is   -0.233245305018225
 Root     14 :     5.814103067114110   Change is   -0.570165158492529
 Root     15 :     6.059935498858218   Change is   -0.282530508762128
 Root     16 :     6.157417109078868   Change is   -0.556499745785434
 Root     17 :     6.292808275670229   Change is   -0.400060758531415
 Root     18 :     6.402834537971267   Change is   -0.209271969742425
 Root     19 :     6.432095674848126   Change is   -0.694065378077799
 Root     20 :     6.451951549419111   Change is   -0.200804514935252
 Root     21 :     6.493872619473347
 Root     22 :     6.584685235276948   Change is   -0.286909008935520
 Root     23 :     6.629152839655433   Change is   -0.589242126907544
 Root     24 :     6.702991793112596   Change is   -0.309672541613613
 Root     25 :     6.731811140625599   Change is   -0.087980826412691
 Root     26 :     6.901108566212195   Change is   -0.268212779215527
 Root     27 :     6.973053950222153   Change is   -0.319530611040934
 Root     28 :     7.010834653612394   Change is   -0.192783574743853
 Root     29 :     7.048243428370698   Change is   -0.345036167398714
 Root     30 :     7.151982532760959   Change is   -0.257255943037991
 Iteration     3 Dimension   240 NMult   180 NNew     60
 CISAX will form    60 AO SS matrices at one time.
 NMat=    60 NSing=    60 JSym2X= 0.
 Root      1 not converged, maximum delta is    0.003124622089067
 Root      2 not converged, maximum delta is    0.011859065322653
 Root      3 not converged, maximum delta is    0.202175272842088
 Root      4 not converged, maximum delta is    0.220320413466508
 Root      5 not converged, maximum delta is    0.055415395599440
 Root      6 not converged, maximum delta is    0.070313200907117
 Root      7 not converged, maximum delta is    0.043400782272707
 New state      8 was old state      9
 Root      8 not converged, maximum delta is    0.257624735147986
 New state      9 was old state      8
 Root      9 not converged, maximum delta is    0.242081691019774
 Root     10 not converged, maximum delta is    0.046236993590240
 Root     11 not converged, maximum delta is    0.136621733229968
 Root     12 not converged, maximum delta is    0.108401844197590
 New state     13 was old state     14
 Root     13 not converged, maximum delta is    0.307646578462145
 New state     14 was old state     13
 Root     14 not converged, maximum delta is    0.168802313132520
 Root     15 not converged, maximum delta is    0.014655764256331
 Root     16 not converged, maximum delta is    0.019535620742530
 Root     17 not converged, maximum delta is    0.022233543242544
 Root     18 not converged, maximum delta is    0.107815947612404
 Root     19 not converged, maximum delta is    0.136108206533954
 Root     20 not converged, maximum delta is    0.130531321638012
 Root     21 not converged, maximum delta is    0.113357636234401
 Root     22 not converged, maximum delta is    0.033611558895588
 Root     23 not converged, maximum delta is    0.036038277078675
 Root     24 not converged, maximum delta is    0.081333529105118
 Root     25 not converged, maximum delta is    0.097601947955079
 Root     26 not converged, maximum delta is    0.104445945584351
 Root     27 not converged, maximum delta is    0.196278699642342
 New state     28 was old state     30
 Root     28 not converged, maximum delta is    0.255311935859393
 New state     29 was old state     28
 Root     29 not converged, maximum delta is    0.064221877111020
 New state     30 was old state     29
 Root     30 not converged, maximum delta is    0.126044851130193
 Excitation Energies [eV] at current iteration:
 Root      1 :     3.014567593395512   Change is   -0.026407460736557
 Root      2 :     3.976794111189408   Change is   -0.027039510868567
 Root      3 :     4.772189628320016   Change is   -0.028235551667647
 Root      4 :     4.792307498719610   Change is   -0.022047743371179
 Root      5 :     5.108985327738962   Change is   -0.019140726754585
 Root      6 :     5.141647877664599   Change is   -0.029119060842797
 Root      7 :     5.221014827341129   Change is   -0.044809745144443
 Root      8 :     5.372914612860528   Change is   -0.106044224179273
 Root      9 :     5.446558404853771   Change is   -0.008503118555738
 Root     10 :     5.524912849648959   Change is   -0.018121034937567
 Root     11 :     5.616072895286911   Change is   -0.012110728549155
 Root     12 :     5.661619248547857   Change is   -0.033566956004046
 Root     13 :     5.775339585851623   Change is   -0.038763481262486
 Root     14 :     5.779589660423045   Change is   -0.008272515667836
 Root     15 :     6.040000017852466   Change is   -0.019935481005752
 Root     16 :     6.109754030545033   Change is   -0.047663078533836
 Root     17 :     6.259244636791423   Change is   -0.033563638878805
 Root     18 :     6.324681454702620   Change is   -0.078153083268647
 Root     19 :     6.393383430376606   Change is   -0.038712244471521
 Root     20 :     6.425507588768938   Change is   -0.026443960650173
 Root     21 :     6.469508309048109   Change is   -0.024364310425238
 Root     22 :     6.557154817755039   Change is   -0.027530417521909
 Root     23 :     6.604808850262233   Change is   -0.024343989393200
 Root     24 :     6.670732827824161   Change is   -0.032258965288435
 Root     25 :     6.694585086871220   Change is   -0.037226053754379
 Root     26 :     6.840555017799414   Change is   -0.060553548412782
 Root     27 :     6.917638006594836   Change is   -0.055415943627317
 Root     28 :     6.957007269151124   Change is   -0.194975263609834
 Root     29 :     6.986389082661100   Change is   -0.024445570951293
 Root     30 :     6.996835505208447   Change is   -0.051407923162252
 Iteration     4 Dimension   300 NMult   240 NNew     60
 CISAX will form    60 AO SS matrices at one time.
 NMat=    60 NSing=    60 JSym2X= 0.
 Root      1 not converged, maximum delta is    0.000927146698910
 Root      2 not converged, maximum delta is    0.001793520611442
 Root      3 not converged, maximum delta is    0.016372635921087
 Root      4 not converged, maximum delta is    0.017994282904504
 Root      5 not converged, maximum delta is    0.005086630171502
 Root      6 not converged, maximum delta is    0.002566210381107
 Root      7 not converged, maximum delta is    0.003523412355391
 Root      8 not converged, maximum delta is    0.007863941360281
 Root      9 not converged, maximum delta is    0.005931991282209
 Root     10 not converged, maximum delta is    0.001890020505482
 Root     11 not converged, maximum delta is    0.022132500075728
 Root     12 not converged, maximum delta is    0.019866920193701
 Root     13 not converged, maximum delta is    0.155899904770590
 Root     14 not converged, maximum delta is    0.084486304087388
 Root     15 not converged, maximum delta is    0.003144126541058
 Root     16 not converged, maximum delta is    0.008317738274617
 Root     17 not converged, maximum delta is    0.009844583563972
 Root     18 not converged, maximum delta is    0.008123500710372
 Root     19 not converged, maximum delta is    0.026714141770798
 Root     20 not converged, maximum delta is    0.021585464712766
 Root     21 not converged, maximum delta is    0.021815258747907
 Root     22 not converged, maximum delta is    0.014309536678822
 Root     23 not converged, maximum delta is    0.005618265050453
 Root     24 not converged, maximum delta is    0.194354739687554
 Root     25 not converged, maximum delta is    0.188328694799155
 New state     26 was old state     28
 Root     26 not converged, maximum delta is    0.266593949027068
 Root     27 not converged, maximum delta is    0.264814920160158
 New state     28 was old state     26
 Root     28 not converged, maximum delta is    0.214497184639152
 New state     29 was old state     30
 Root     29 not converged, maximum delta is    0.291248134867871
 New state     30 was old state     29
 Root     30 not converged, maximum delta is    0.299821447338684
 Excitation Energies [eV] at current iteration:
 Root      1 :     3.013530634520637   Change is   -0.001036958874876
 Root      2 :     3.974961005614149   Change is   -0.001833105575259
 Root      3 :     4.769273084303655   Change is   -0.002916544016361
 Root      4 :     4.791113911272554   Change is   -0.001193587447055
 Root      5 :     5.107022461416109   Change is   -0.001962866322853
 Root      6 :     5.139446507207172   Change is   -0.002201370457427
 Root      7 :     5.217794953606932   Change is   -0.003219873734198
 Root      8 :     5.364559778944704   Change is   -0.008354833915824
 Root      9 :     5.445355058402283   Change is   -0.001203346451488
 Root     10 :     5.523538477364198   Change is   -0.001374372284761
 Root     11 :     5.614258538554465   Change is   -0.001814356732446
 Root     12 :     5.657953614676646   Change is   -0.003665633871211
 Root     13 :     5.769925821798094   Change is   -0.005413764053529
 Root     14 :     5.778250867644803   Change is   -0.001338792778242
 Root     15 :     6.038755092787884   Change is   -0.001244925064582
 Root     16 :     6.102621187122734   Change is   -0.007132843422298
 Root     17 :     6.251487971742301   Change is   -0.007756665049122
 Root     18 :     6.315488192609367   Change is   -0.009193262093254
 Root     19 :     6.384259159058455   Change is   -0.009124271318150
 Root     20 :     6.423304403120932   Change is   -0.002203185648006
 Root     21 :     6.464777664471368   Change is   -0.004730644576741
 Root     22 :     6.554752290873865   Change is   -0.002402526881174
 Root     23 :     6.602450388919578   Change is   -0.002358461342654
 Root     24 :     6.628305156283267   Change is   -0.042427671540894
 Root     25 :     6.676314912214714   Change is   -0.018270174656507
 Root     26 :     6.687037259237862   Change is   -0.269970009913262
 Root     27 :     6.721526230728633   Change is   -0.196111775866203
 Root     28 :     6.858920845206762   Change is    0.018365827407348
 Root     29 :     6.933611620077134   Change is   -0.063223885131313
 Root     30 :     6.951284110139976   Change is   -0.035104972521124
 Iteration     5 Dimension   360 NMult   300 NNew     60
 CISAX will form    60 AO SS matrices at one time.
 NMat=    60 NSing=    60 JSym2X= 0.
 Root      1 not converged, maximum delta is    0.000142175771051
 Root      2 not converged, maximum delta is    0.000237101008386
 Root      3 not converged, maximum delta is    0.000867016781619
 Root      4 not converged, maximum delta is    0.000952185112481
 Root      5 not converged, maximum delta is    0.001522582806049
 Root      6 not converged, maximum delta is    0.000823781105523
 Root      7 not converged, maximum delta is    0.000810917369516
 Root      8 not converged, maximum delta is    0.004504068437328
 Root      9 not converged, maximum delta is    0.001377021298114
 Root     10 not converged, maximum delta is    0.000913066022771
 Root     11 not converged, maximum delta is    0.002115661343988
 Root     12 not converged, maximum delta is    0.002154830219814
 Root     13 not converged, maximum delta is    0.006716996382255
 Root     14 not converged, maximum delta is    0.003698118748783
 Root     15 not converged, maximum delta is    0.000536816975624
 Root     16 not converged, maximum delta is    0.001746852255336
 Root     17 not converged, maximum delta is    0.004043009466518
 Root     18 not converged, maximum delta is    0.001351911447628
 Root     19 not converged, maximum delta is    0.006686455994972
 Root     20 not converged, maximum delta is    0.003764059287061
 Root     21 not converged, maximum delta is    0.006130946274391
 Root     22 not converged, maximum delta is    0.011471407704739
 New state     23 was old state     24
 Root     23 not converged, maximum delta is    0.139992804826599
 New state     24 was old state     23
 Root     24 not converged, maximum delta is    0.097031990434168
 Root     25 not converged, maximum delta is    0.149502101283798
 Root     26 not converged, maximum delta is    0.061941026565948
 Root     27 not converged, maximum delta is    0.115988717566970
 Root     28 not converged, maximum delta is    0.209267046711298
 New state     29 was old state     30
 Root     29 not converged, maximum delta is    0.178243653476176
 New state     30 was old state     29
 Root     30 not converged, maximum delta is    0.183373876208020
 Excitation Energies [eV] at current iteration:
 Root      1 :     3.013491536486097   Change is   -0.000039098034539
 Root      2 :     3.974884354899233   Change is   -0.000076650714917
 Root      3 :     4.769110173302677   Change is   -0.000162911000979
 Root      4 :     4.791062061698492   Change is   -0.000051849574063
 Root      5 :     5.106820398991395   Change is   -0.000202062424713
 Root      6 :     5.139289271844699   Change is   -0.000157235362473
 Root      7 :     5.217583373642618   Change is   -0.000211579964313
 Root      8 :     5.363570141143558   Change is   -0.000989637801146
 Root      9 :     5.445237481810399   Change is   -0.000117576591883
 Root     10 :     5.523449087259849   Change is   -0.000089390104350
 Root     11 :     5.614076322332749   Change is   -0.000182216221717
 Root     12 :     5.657618540992853   Change is   -0.000335073683793
 Root     13 :     5.769428531420934   Change is   -0.000497290377160
 Root     14 :     5.778189388994739   Change is   -0.000061478650064
 Root     15 :     6.038646711559539   Change is   -0.000108381228345
 Root     16 :     6.101766285704117   Change is   -0.000854901418618
 Root     17 :     6.250399497502839   Change is   -0.001088474239462
 Root     18 :     6.314758953910948   Change is   -0.000729238698419
 Root     19 :     6.382632078385957   Change is   -0.001627080672498
 Root     20 :     6.423052405902638   Change is   -0.000251997218294
 Root     21 :     6.463868830665637   Change is   -0.000908833805731
 Root     22 :     6.554320235148320   Change is   -0.000432055725545
 Root     23 :     6.600345685830320   Change is   -0.027959470452948
 Root     24 :     6.602412749911125   Change is   -0.000037639008453
 Root     25 :     6.658223782595815   Change is   -0.018091129618899
 Root     26 :     6.674058061556491   Change is   -0.012979197681371
 Root     27 :     6.698249453258721   Change is   -0.023276777469912
 Root     28 :     6.794746568083269   Change is   -0.064174277123493
 Root     29 :     6.881023517979691   Change is   -0.070260592160285
 Root     30 :     6.933312634163800   Change is   -0.000298985913335
 Iteration     6 Dimension   420 NMult   360 NNew     60
 CISAX will form    60 AO SS matrices at one time.
 NMat=    60 NSing=    60 JSym2X= 0.
 Root      1 not converged, maximum delta is    0.000017738246859
 Root      2 not converged, maximum delta is    0.000061545578316
 Root      3 not converged, maximum delta is    0.000145471400102
 Root      4 not converged, maximum delta is    0.000050796627685
 Root      5 not converged, maximum delta is    0.000322464249364
 Root      6 not converged, maximum delta is    0.000217324621959
 Root      7 not converged, maximum delta is    0.000114061512224
 Root      8 not converged, maximum delta is    0.000991218292764
 Root      9 not converged, maximum delta is    0.000244486878462
 Root     10 not converged, maximum delta is    0.000158155299356
 Root     11 not converged, maximum delta is    0.000140213319985
 Root     12 not converged, maximum delta is    0.000162142435384
 Root     13 not converged, maximum delta is    0.000418677257399
 Root     14 not converged, maximum delta is    0.000232291081089
 Root     15 not converged, maximum delta is    0.000117967127049
 Root     16 not converged, maximum delta is    0.000369701475348
 Root     17 not converged, maximum delta is    0.000879996460016
 Root     18 not converged, maximum delta is    0.000308546603048
 Root     19 not converged, maximum delta is    0.000829867746752
 Root     20 not converged, maximum delta is    0.000454964934527
 Root     21 not converged, maximum delta is    0.000842215495994
 Root     22 not converged, maximum delta is    0.002325700716016
 Root     23 not converged, maximum delta is    0.072095478485214
 Root     24 not converged, maximum delta is    0.057326598351873
 Root     25 not converged, maximum delta is    0.018388844869452
 Root     26 not converged, maximum delta is    0.008100651251073
 Root     27 not converged, maximum delta is    0.012204827958528
 Root     28 not converged, maximum delta is    0.015455577549102
 Root     29 not converged, maximum delta is    0.009505759655023
 Root     30 not converged, maximum delta is    0.191407737659629
 Excitation Energies [eV] at current iteration:
 Root      1 :     3.013490360420227   Change is   -0.000001176065871
 Root      2 :     3.974881076028137   Change is   -0.000003278871096
 Root      3 :     4.769101484028420   Change is   -0.000008689274256
 Root      4 :     4.791059823538791   Change is   -0.000002238159701
 Root      5 :     5.106806437451727   Change is   -0.000013961539669
 Root      6 :     5.139278425198713   Change is   -0.000010846645986
 Root      7 :     5.217573130359705   Change is   -0.000010243282913
 Root      8 :     5.363484519724281   Change is   -0.000085621419277
 Root      9 :     5.445228152106777   Change is   -0.000009329703622
 Root     10 :     5.523443593492956   Change is   -0.000005493766892
 Root     11 :     5.614064179234805   Change is   -0.000012143097944
 Root     12 :     5.657597629421424   Change is   -0.000020911571429
 Root     13 :     5.769396640661671   Change is   -0.000031890759264
 Root     14 :     5.778185599716187   Change is   -0.000003789278551
 Root     15 :     6.038639906543698   Change is   -0.000006805015841
 Root     16 :     6.101709838579318   Change is   -0.000056447124799
 Root     17 :     6.250308472041260   Change is   -0.000091025461579
 Root     18 :     6.314711723205974   Change is   -0.000047230704974
 Root     19 :     6.382445021257201   Change is   -0.000187057128756
 Root     20 :     6.423027033244118   Change is   -0.000025372658520
 Root     21 :     6.463758756601178   Change is   -0.000110074064459
 Root     22 :     6.554264070958282   Change is   -0.000056164190038
 Root     23 :     6.596565302267949   Change is   -0.003780383562371
 Root     24 :     6.602235632776660   Change is   -0.000177117134466
 Root     25 :     6.655311710951635   Change is   -0.002912071644180
 Root     26 :     6.672443744564810   Change is   -0.001614316991680
 Root     27 :     6.696576217431684   Change is   -0.001673235827038
 Root     28 :     6.785263170197009   Change is   -0.009483397886260
 Root     29 :     6.878705111079833   Change is   -0.002318406899859
 Root     30 :     6.916905628192633   Change is   -0.016407005971167
 Iteration     7 Dimension   480 NMult   420 NNew     60
 CISAX will form    60 AO SS matrices at one time.
 NMat=    60 NSing=    60 JSym2X= 0.
 Root      1 not converged, maximum delta is    0.000004465250775
 Root      2 not converged, maximum delta is    0.000006471820979
 Root      3 not converged, maximum delta is    0.000029970556553
 Root      4 not converged, maximum delta is    0.000008940637619
 Root      5 not converged, maximum delta is    0.000087634768945
 Root      6 not converged, maximum delta is    0.000063199867501
 Root      7 not converged, maximum delta is    0.000026059559369
 Root      8 not converged, maximum delta is    0.000222464267629
 Root      9 not converged, maximum delta is    0.000027499443268
 Root     10 not converged, maximum delta is    0.000027054630454
 Root     11 not converged, maximum delta is    0.000048024231403
 Root     12 not converged, maximum delta is    0.000072929854493
 Root     13 not converged, maximum delta is    0.000070477243808
 Root     14 not converged, maximum delta is    0.000024730579075
 Root     15 not converged, maximum delta is    0.000015979867791
 Root     16 not converged, maximum delta is    0.000098762336746
 Root     17 not converged, maximum delta is    0.000163082604905
 Root     18 not converged, maximum delta is    0.000138418745244
 Root     19 not converged, maximum delta is    0.000335609607853
 Root     20 not converged, maximum delta is    0.000115752368945
 Root     21 not converged, maximum delta is    0.000298207884059
 Root     22 not converged, maximum delta is    0.000256738650041
 Root     23 not converged, maximum delta is    0.002498758994806
 Root     24 not converged, maximum delta is    0.002080825007098
 Root     25 not converged, maximum delta is    0.002203783662808
 Root     26 not converged, maximum delta is    0.001213651666680
 Root     27 not converged, maximum delta is    0.001420671253748
 Root     28 not converged, maximum delta is    0.004814565995047
 Root     29 not converged, maximum delta is    0.002569831704797
 Root     30 not converged, maximum delta is    0.007625934903772
 Excitation Energies [eV] at current iteration:
 Root      1 :     3.013490324200794   Change is   -0.000000036219432
 Root      2 :     3.974880968541342   Change is   -0.000000107486795
 Root      3 :     4.769101069126712   Change is   -0.000000414901708
 Root      4 :     4.791059715196702   Change is   -0.000000108342088
 Root      5 :     5.106805290042160   Change is   -0.000001147409567
 Root      6 :     5.139277629783511   Change is   -0.000000795415202
 Root      7 :     5.217572562162919   Change is   -0.000000568196786
 Root      8 :     5.363477610229284   Change is   -0.000006909494998
 Root      9 :     5.445227537729660   Change is   -0.000000614377117
 Root     10 :     5.523443211569298   Change is   -0.000000381923657
 Root     11 :     5.614063292275802   Change is   -0.000000886959002
 Root     12 :     5.657596059515076   Change is   -0.000001569906348
 Root     13 :     5.769394683536275   Change is   -0.000001957125395
 Root     14 :     5.778185344591495   Change is   -0.000000255124692
 Root     15 :     6.038639510795928   Change is   -0.000000395747770
 Root     16 :     6.101706150469211   Change is   -0.000003688110107
 Root     17 :     6.250301970326781   Change is   -0.000006501714479
 Root     18 :     6.314706872215108   Change is   -0.000004850990865
 Root     19 :     6.382428571375628   Change is   -0.000016449881574
 Root     20 :     6.423024670331526   Change is   -0.000002362912591
 Root     21 :     6.463746192845366   Change is   -0.000012563755812
 Root     22 :     6.554258140231473   Change is   -0.000005930726808
 Root     23 :     6.596143060444844   Change is   -0.000422241823105
 Root     24 :     6.602227413052337   Change is   -0.000008219724323
 Root     25 :     6.654987702930563   Change is   -0.000324008021072
 Root     26 :     6.672264851973061   Change is   -0.000178892591749
 Root     27 :     6.696390446141774   Change is   -0.000185771289909
 Root     28 :     6.784100289319294   Change is   -0.001162880877715
 Root     29 :     6.878408033835106   Change is   -0.000297077244726
 Root     30 :     6.914818328416942   Change is   -0.002087299775690
 Davidson failed to converge within maximum sub-space dimensions.
  Restart with updated initial guess:
 Iteration     1 Dimension   120 NMult   480 NNew    120
 CISAX will form   120 AO SS matrices at one time.
 NMat=   120 NSing=   120 JSym2X= 0.
[...]
 Alpha virt. eigenvalues --    0.14857   0.15002   0.15124   0.15332   0.15543
 Alpha virt. eigenvalues --    0.15848   0.15967   0.16020   0.16314   0.16469
 Alpha virt. eigenvalues --    0.16646   0.16693   0.17048   0.17111   0.17354
 Alpha virt. eigenvalues --    0.17417   0.17582   0.17676   0.17838   0.17998
 Alpha virt. eigenvalues --    0.18190   0.18257   0.18535   0.18634   0.18890
 Alpha virt. eigenvalues --    0.19044   0.19239   0.19329   0.19575   0.19819
 Alpha virt. eigenvalues --    0.20117   0.20180   0.20469   0.20539   0.20735
 Alpha virt. eigenvalues --    0.20970   0.21322   0.21567   0.21672   0.21949
 Alpha virt. eigenvalues --    0.22155   0.22192   0.22525   0.22547   0.22661
 Alpha virt. eigenvalues --    0.23006   0.23106   0.23381   0.23645   0.23686
 Alpha virt. eigenvalues --    0.23772   0.24146   0.24226   0.24392   0.24631
 Alpha virt. eigenvalues --    0.24918   0.25070   0.25235   0.25756   0.25822
 Alpha virt. eigenvalues --    0.25902   0.26297   0.26365   0.26492   0.26683
 Alpha virt. eigenvalues --    0.26874   0.27011   0.27051   0.27293   0.27576
 Alpha virt. eigenvalues --    0.27671   0.28012   0.28221   0.28444   0.28733
 Alpha virt. eigenvalues --    0.29336   0.29519   0.29552   0.29662   0.29852
 Alpha virt. eigenvalues --    0.30242   0.30397   0.30572   0.30787   0.31086
 Alpha virt. eigenvalues --    0.31175   0.31499   0.31770   0.32293   0.32395
 Alpha virt. eigenvalues --    0.32592   0.32844   0.33246   0.33373   0.33527
 Alpha virt. eigenvalues --    0.33851   0.34058   0.34318   0.34460   0.34742
 Alpha virt. eigenvalues --    0.34840   0.35077   0.35458   0.35749   0.35858
 Alpha virt. eigenvalues --    0.36051   0.36117   0.36286   0.36313   0.36708
 Alpha virt. eigenvalues --    0.36802   0.37096   0.37311   0.37556   0.37807
 Alpha virt. eigenvalues --    0.37885   0.38138   0.38286   0.38478   0.38841
 Alpha virt. eigenvalues --    0.39103   0.39328   0.39876   0.39933   0.40006
 Alpha virt. eigenvalues --    0.40136   0.40424   0.41002   0.41070   0.41377
 Alpha virt. eigenvalues --    0.41825   0.41943   0.42253   0.42738   0.42917
 Alpha virt. eigenvalues --    0.43391   0.43571   0.43838   0.44418   0.44595
 Alpha virt. eigenvalues --    0.44743   0.44971   0.45342   0.45434   0.45769
 Alpha virt. eigenvalues --    0.46020   0.46301   0.46873   0.47546   0.47777
 Alpha virt. eigenvalues --    0.48388   0.48516   0.48662   0.49363   0.49444
 Alpha virt. eigenvalues --    0.49972   0.50507   0.51115   0.51696   0.52052
 Alpha virt. eigenvalues --    0.52575   0.53111   0.53763   0.53821   0.54641
 Alpha virt. eigenvalues --    0.55225   0.56263   0.56848   0.56973   0.57183
 Alpha virt. eigenvalues --    0.58085   0.58711   0.59019   0.60309   0.60852
 Alpha virt. eigenvalues --    0.61077   0.61262   0.61795   0.62180   0.63295
 Alpha virt. eigenvalues --    0.63586   0.64031   0.64357   0.64626   0.65166
 Alpha virt. eigenvalues --    0.65575   0.65652   0.66126   0.66556   0.66936
 Alpha virt. eigenvalues --    0.67935   0.68543   0.69176   0.69557   0.69730
 Alpha virt. eigenvalues --    0.69991   0.70201   0.70509   0.71151   0.71411
 Alpha virt. eigenvalues --    0.71675   0.72197   0.72278   0.73098   0.73303
 Alpha virt. eigenvalues --    0.73475   0.73643   0.73673   0.74025   0.74124
 Alpha virt. eigenvalues --    0.74659   0.74977   0.75264   0.75419   0.75863
 Alpha virt. eigenvalues --    0.76165   0.76336   0.76663   0.76947   0.77311
 Alpha virt. eigenvalues --    0.77519   0.78086   0.78195   0.78662   0.78834
 Alpha virt. eigenvalues --    0.78956   0.79353   0.79635   0.79831   0.79974
 Alpha virt. eigenvalues --    0.80314   0.80496   0.80630   0.80763   0.81396
 Alpha virt. eigenvalues --    0.81586   0.81837   0.82190   0.82375   0.83033
 Alpha virt. eigenvalues --    0.83337   0.83494   0.83930   0.84269   0.84465
 Alpha virt. eigenvalues --    0.84575   0.84649   0.85199   0.85448   0.85776
 Alpha virt. eigenvalues --    0.85883   0.86261   0.86675   0.87116   0.87309
 Alpha virt. eigenvalues --    0.87770   0.87941   0.88437   0.88578   0.89090
 Alpha virt. eigenvalues --    0.89804   0.90198   0.91259   0.91665   0.91959
 Alpha virt. eigenvalues --    0.92885   0.93572   0.94149   0.94363   0.95003
 Alpha virt. eigenvalues --    0.96186   0.96827   0.97167   0.97819   0.98890
 Alpha virt. eigenvalues --    0.99229   0.99654   1.00103   1.00916   1.01089
 Alpha virt. eigenvalues --    1.01505   1.02293   1.02530   1.02805   1.03182
 Alpha virt. eigenvalues --    1.03348   1.03962   1.04172   1.05359   1.05631
 Alpha virt. eigenvalues --    1.06907   1.07095   1.07777   1.08222   1.09329
 Alpha virt. eigenvalues --    1.09442   1.09734   1.09941   1.10100   1.10796
 Alpha virt. eigenvalues --    1.11423   1.11509   1.11897   1.12066   1.12491
 Alpha virt. eigenvalues --    1.12888   1.13191   1.13746   1.14142   1.14157
 Alpha virt. eigenvalues --    1.14343   1.14645   1.15834   1.16243   1.17931
 Alpha virt. eigenvalues --    1.18239   1.19268   1.20006   1.20440   1.20763
 Alpha virt. eigenvalues --    1.21596   1.22084   1.22578   1.23770   1.24078
 Alpha virt. eigenvalues --    1.24333   1.25846   1.26825   1.27612   1.28389
 Alpha virt. eigenvalues --    1.28707   1.28966   1.29107   1.30232   1.31115
 Alpha virt. eigenvalues --    1.31967   1.32546   1.33649   1.35973   1.36520
 Alpha virt. eigenvalues --    1.36790   1.37228   1.38184   1.38440   1.38598
 Alpha virt. eigenvalues --    1.39992   1.41133   1.42101   1.43258   1.43371
 Alpha virt. eigenvalues --    1.44657   1.46188   1.46267   1.46303   1.47157
 Alpha virt. eigenvalues --    1.47499   1.47744   1.49167   1.49916   1.52719
 Alpha virt. eigenvalues --    1.52848   1.54472   1.54524   1.55037   1.57495
 Alpha virt. eigenvalues --    1.57564   1.58333   1.58857   1.59168   1.59225
 Alpha virt. eigenvalues --    1.59373   1.60373   1.60577   1.61049   1.61412
 Alpha virt. eigenvalues --    1.61840   1.62188   1.63587   1.63879   1.64345
 Alpha virt. eigenvalues --    1.64917   1.65961   1.66135   1.66319   1.66589
 Alpha virt. eigenvalues --    1.67121   1.67481   1.67598   1.68157   1.68229
 Alpha virt. eigenvalues --    1.68572   1.68823   1.69036   1.69203   1.69518
 Alpha virt. eigenvalues --    1.69977   1.70107   1.70764   1.71066   1.71477
 Alpha virt. eigenvalues --    1.72171   1.72598   1.72862   1.73027   1.73776
 Alpha virt. eigenvalues --    1.74000   1.74148   1.74444   1.75721   1.76168
 Alpha virt. eigenvalues --    1.76585   1.76749   1.77839   1.78161   1.78354
 Alpha virt. eigenvalues --    1.78638   1.79091   1.79530   1.80127   1.80829
 Alpha virt. eigenvalues --    1.80981   1.82072   1.82187   1.82454   1.82735
 Alpha virt. eigenvalues --    1.83745   1.85321   1.86080   1.86674   1.86863
 Alpha virt. eigenvalues --    1.87474   1.87843   1.88013   1.88674   1.88971
 Alpha virt. eigenvalues --    1.89252   1.89910   1.90729   1.91452   1.92086
 Alpha virt. eigenvalues --    1.92948   1.93204   1.94015   1.94984   1.95207
 Alpha virt. eigenvalues --    1.95985   1.96766   1.97279   1.97837   1.98387
 Alpha virt. eigenvalues --    1.98820   1.99205   2.00088   2.00404   2.01190
 Alpha virt. eigenvalues --    2.01460   2.02107   2.02946   2.03917   2.04013
 Alpha virt. eigenvalues --    2.04600   2.05165   2.05521   2.06645   2.06996
 Alpha virt. eigenvalues --    2.07224   2.08158   2.09047   2.09128   2.09328
 Alpha virt. eigenvalues --    2.10688   2.11044   2.11187   2.11757   2.12488
 Alpha virt. eigenvalues --    2.12967   2.13629   2.15011   2.15837   2.16659
 Alpha virt. eigenvalues --    2.17098   2.17470   2.17708   2.19068   2.20162
 Alpha virt. eigenvalues --    2.20513   2.21681   2.22108   2.23079   2.24034
 Alpha virt. eigenvalues --    2.25104   2.26143   2.26335   2.26922   2.27671
 Alpha virt. eigenvalues --    2.28277   2.28731   2.29301   2.30343   2.30553
 Alpha virt. eigenvalues --    2.31761   2.32285   2.33509   2.34438   2.35098
 Alpha virt. eigenvalues --    2.35794   2.36079   2.37019   2.37788   2.38157
 Alpha virt. eigenvalues --    2.38285   2.40244   2.40765   2.42445   2.43490
 Alpha virt. eigenvalues --    2.44541   2.45774   2.46099   2.46449   2.47284
 Alpha virt. eigenvalues --    2.48227   2.49137   2.50403   2.50637   2.51295
 Alpha virt. eigenvalues --    2.54049   2.54977   2.55931   2.57218   2.57805
 Alpha virt. eigenvalues --    2.58158   2.58504   2.59586   2.60336   2.61092
 Alpha virt. eigenvalues --    2.61162   2.61543   2.62011   2.62574   2.63487
 Alpha virt. eigenvalues --    2.64856   2.65036   2.65078   2.66096   2.66887
 Alpha virt. eigenvalues --    2.67411   2.67668   2.68402   2.68889   2.69362
 Alpha virt. eigenvalues --    2.70082   2.70665   2.71559   2.71644   2.72139
 Alpha virt. eigenvalues --    2.72353   2.72970   2.73610   2.74467   2.74997
 Alpha virt. eigenvalues --    2.75071   2.75919   2.76366   2.76809   2.77424
 Alpha virt. eigenvalues --    2.77986   2.78890   2.79853   2.80156   2.80241
 Alpha virt. eigenvalues --    2.80846   2.81360   2.81771   2.82383   2.82847
 Alpha virt. eigenvalues --    2.83442   2.85484   2.86041   2.86069   2.86715
 Alpha virt. eigenvalues --    2.87132   2.88061   2.88527   2.89403   2.90090
 Alpha virt. eigenvalues --    2.91103   2.91596   2.91909   2.93155   2.93517
 Alpha virt. eigenvalues --    2.93712   2.94319   2.94832   2.95122   2.95978
 Alpha virt. eigenvalues --    2.96716   2.97527   2.97837   2.99316   2.99873
 Alpha virt. eigenvalues --    3.00202   3.00885   3.01329   3.02090   3.02883
 Alpha virt. eigenvalues --    3.03337   3.04445   3.04702   3.05550   3.05786
 Alpha virt. eigenvalues --    3.06863   3.07409   3.07678   3.08135   3.08851
 Alpha virt. eigenvalues --    3.09117   3.09879   3.10514   3.10870   3.13004
 Alpha virt. eigenvalues --    3.15708   3.16451   3.18461   3.19765   3.20043
 Alpha virt. eigenvalues --    3.20382   3.22625   3.23595   3.24264   3.25519
 Alpha virt. eigenvalues --    3.27084   3.27794   3.29056   3.29607   3.30324
 Alpha virt. eigenvalues --    3.31547   3.31825   3.33999   3.35002   3.35545
 Alpha virt. eigenvalues --    3.36692   3.38837   3.39994   3.41709   3.42610
 Alpha virt. eigenvalues --    3.43027   3.43751   3.44081   3.46178   3.46698
 Alpha virt. eigenvalues --    3.49175   3.49448   3.50567   3.53001   3.54855
 Alpha virt. eigenvalues --    3.55882   3.56463   3.60348   3.61766   3.67908
 Alpha virt. eigenvalues --    3.68216   3.70094   3.71245   3.74173   3.76535
 Alpha virt. eigenvalues --    3.79155   3.79782   3.81258   3.83516   3.83731
 Alpha virt. eigenvalues --    3.84732   3.88196   3.89356   3.90404   3.91759
 Alpha virt. eigenvalues --    3.92252   3.92990   3.93909   3.93995   3.94424
 Alpha virt. eigenvalues --    3.95161   3.95283   3.95377   3.96316   3.96958
 Alpha virt. eigenvalues --    3.97881   3.98604   4.06265   4.08523   4.09824
 Alpha virt. eigenvalues --    4.12632   4.15738   4.16860   4.19937   4.22756
 Alpha virt. eigenvalues --    4.28146   4.31448   4.32265   4.35118   4.35594
 Alpha virt. eigenvalues --    4.37225   4.38782   4.39519   4.40051   4.46033
 Alpha virt. eigenvalues --    4.46354   4.49388   4.58824   4.77774   4.95012
 Alpha virt. eigenvalues --    4.96270   4.97017   4.98254   4.99488   5.13302
 Alpha virt. eigenvalues --    5.17378   5.21836   5.23924   5.24299   5.44428
 Alpha virt. eigenvalues --    5.51095   5.53690   5.82434   6.07388   6.11745
 Alpha virt. eigenvalues --   23.70669  23.83362  23.83959  23.98362  23.98761
 Alpha virt. eigenvalues --   23.99116  24.00187  24.00572  24.00838  24.02204
 Alpha virt. eigenvalues --   24.06968  24.08487  24.08641  24.09764  24.10272
 Alpha virt. eigenvalues --   24.11242  24.12111  24.12354  24.12364  24.14872
 Alpha virt. eigenvalues --   24.15146  24.19948  24.24823  24.25364  24.25953
 Alpha virt. eigenvalues --   24.29754  24.30555  24.31066  35.78289  35.79434
 Alpha virt. eigenvalues --   50.04011  50.10813  50.16515
          Condensed to atoms (all electrons):
 Mulliken charges:
               1
     1  C   -0.030828
     2  C   -0.359777
     3  C   -0.106285
     4  C   -0.497095
     5  C   -0.098201
     6  C    0.430049
     7  O   -0.048247
     8  C    0.464474
     9  C    0.913414
    10  C    0.228789
    11  C   -0.104755
    12  C   -0.517201
    13  C   -0.385748
    14  C   -0.398033
    15  C   -0.062901
    16  C    0.312153
    17  C   -0.203969
    18  C   -0.091702
    19  C   -0.068640
    20  C   -0.488777
    21  C   -0.603539
    22  N   -0.088790
    23  C   -0.297259
    24  C   -0.430058
    25  N   -0.027405
    26  C   -0.051009
    27  C   -0.702152
    28  C   -0.676325
    29  C   -0.574186
    30  O   -0.185110
    31  O   -0.034213
    32  C    0.007936
    33  C   -0.611229
    34  H    0.265525
    35  H    0.152999
    36  H    0.276711
    37  H    0.220132
    38  H    0.246615
    39  H    0.236031
    40  H    0.258625
    41  H    0.154686
    42  H    0.196535
    43  H    0.197848
    44  H    0.192029
    45  H    0.187675
    46  H    0.212804
    47  H    0.159247
    48  H    0.144461
    49  H    0.169243
    50  H    0.389007
    51  H    0.193519
    52  H    0.190619
    53  H    0.180410
    54  H    0.168229
    55  H    0.169382
    56  H    0.192628
    57  H    0.192111
    58  H    0.195005
    59  H    0.195636
    60  H    0.191385
    61  H    0.172794
    62  H    0.163682
    63  H    0.166247
    64  H    0.354800
 Sum of Mulliken charges =   1.00000
 Mulliken charges with hydrogens summed into heavy atoms:
               1
     1  C   -0.030828
     2  C   -0.359777
     3  C    0.159240
     4  C   -0.344096
     5  C   -0.098201
     6  C    0.430049
     7  O   -0.048247
     8  C    0.464474
     9  C    0.913414
    10  C    0.228789
    11  C    0.171956
    12  C   -0.297068
    13  C   -0.139133
    14  C   -0.162002
    15  C   -0.062901
    16  C    0.312153
    17  C    0.054655
    18  C   -0.091702
    19  C   -0.068640
    20  C   -0.334090
    21  C   -0.017127
    22  N    0.266009
    23  C    0.103219
    24  C    0.042892
    25  N    0.361602
    26  C    0.333129
    27  C   -0.184132
    28  C   -0.096581
    29  C   -0.574186
    30  O   -0.185110
    31  O   -0.034213
    32  C    0.394958
    33  C   -0.108506
 Electronic spatial extent (au):  <R**2>=          84035.4416
 Charge=              1.0000 electrons
 Dipole moment (field-independent basis, Debye):
    X=              2.5231    Y=            -42.3061    Z=             -2.3088  Tot=             42.4441
 Quadrupole moment (field-independent basis, Debye-Ang):
   XX=           -136.0148   YY=            298.4397   ZZ=           -176.6546
   XY=            -22.9428   XZ=              7.8404   YZ=             19.7463
 Traceless Quadrupole moment (field-independent basis, Debye-Ang):
   XX=           -131.2716   YY=            303.1829   ZZ=           -171.9114
   XY=            -22.9428   XZ=              7.8404   YZ=             19.7463
 Octapole moment (field-independent basis, Debye-Ang**2):
  XXX=           -675.8772  YYY=          -1372.0765  ZZZ=             44.2451  XYY=           -167.3660
  XXY=           1205.7845  XXZ=            -17.1048  XZZ=           -206.2823  YZZ=           1570.3959
  YYZ=           -251.0758  XYZ=            -54.4244
 Hexadecapole moment (field-independent basis, Debye-Ang**3):
 XXXX=          -9355.2190 YYYY=         -11541.6281 ZZZZ=          -2956.8999 XXXY=           5753.9300
 XXXZ=          -1063.0195 YYYX=           7783.7069 YYYZ=           3354.7093 ZZZX=           -721.8837
 ZZZY=           -464.3158 XXYY=         -14007.0538 XXZZ=          -2020.9639 YYZZ=         -16393.4403
 XXYZ=            131.5720 YYXZ=            101.1276 ZZXY=           1794.1171
 N-N= 3.331859859963D+03 E-N=-9.944131362580D+03  KE= 1.413637431427D+03
 No NMR shielding tensors so no spin-rotation constants.
 Leave Link  601 at Sat May  2 16:10:15 2020, MaxMem=  6710886400 cpu:        11.2
 (Enter /opt/sys/apps/gaussian09/D.01/g09/l9999.exe)

 Test job not archived.
 1\1\GINC-S92P34\SP\RCAM-B3LYP TD-FC\6-311++G(d,p)\C28H31N2O3(1+)\SALVA
 TORE\02-May-2020\0\\#p CAM-B3LYP/6-311++G** nosym density=current geom
 =allcheck EmpiricalDispersion=GD3 SCRF=(CPCM, solvent=water) IOP(10/74
 =10) TD=(NSTATES=30,ROOT=1,NONEQ) iop(3/119=0810000000) iop(3/120=0810
 000000)\\R6G\\1,1\C,0,1.4821314991,-12.471956085,-0.370660113\C,0,0.04
 06171139,-12.4614037059,-0.4920689321\C,0,-0.6397408636,-11.232661177,
 -0.6099900245\C,0,2.1521046485,-11.2795998934,-0.380873442\C,0,1.49125
 71922,-10.0239113416,-0.5033121776\C,0,0.0763806133,-10.0544280374,-0.
 6105715216\O,0,-0.6378305287,-8.9025450529,-0.7152783862\C,0,2.1480157
 283,-8.781900598,-0.4959690263\C,0,3.6376689132,-8.719263369,-0.448070
 9797\C,0,4.3683832241,-8.5450821097,0.7428516481\C,0,5.767288801,-8.48
 15774202,0.6873167415\C,0,6.4371019152,-8.5899599866,-0.5258850138\C,0
 ,5.7123971481,-8.7629553576,-1.7034276477\C,0,4.3217420278,-8.82683222
 26,-1.6616722617\C,0,1.3956447728,-7.6025600271,-0.6250721328\C,0,-0.0
 168468818,-7.6929072441,-0.7254183298\C,0,-0.8239106169,-6.5807665537,
 -0.8295552791\C,0,-0.2452670215,-5.2956954488,-0.8425639092\C,0,1.1919
 86609,-5.16214727,-0.7419932742\C,0,1.9546479424,-6.2931143978,-0.6396
 941605\C,0,1.8231307316,-3.7952872701,-0.753966572\N,0,-1.0028025322,-
 4.1840779247,-0.9628459869\C,0,-2.464530924,-4.1447149463,-0.993588584
 4\C,0,-3.0997242332,-4.2989501277,0.3913150387\N,0,-0.6340700592,-13.6
 291456193,-0.4881106211\C,0,-2.0852258655,-13.7629021745,-0.6068153855
 \C,0,-2.4916050197,-15.2301749036,-0.5502171373\C,0,2.2158886875,-13.7
 794061204,-0.2351593658\C,0,3.653131688,-8.4409369255,2.0500449229\O,0
 ,2.4519413444,-8.5720316989,2.1837073003\O,0,4.4815668969,-8.187346210
 3,3.0705160651\C,0,3.8848373844,-8.0778541728,4.3947071775\C,0,5.01107
 13727,-7.8332138464,5.3750323568\H,0,-1.7154687997,-11.1856630097,-0.6
 974672086\H,0,3.2313601471,-11.2801819131,-0.2902882282\H,0,6.32438438
 28,-8.3494940864,1.6045923249\H,0,7.5189887435,-8.5410524545,-0.551611
 9119\H,0,6.2249976488,-8.8485931772,-2.6542736365\H,0,3.7568491639,-8.
 9582846773,-2.5769231185\H,0,-1.8924765591,-6.7243611358,-0.8936086232
 \H,0,3.0309195673,-6.1971722618,-0.5652879192\H,0,2.9068101084,-3.8712
 519328,-0.6658134156\H,0,1.6012893799,-3.2583846943,-1.6827778576\H,0,
 1.4646303436,-3.1787815259,0.0778217997\H,0,-2.8264061897,-4.916931724
 2,-1.6770756789\H,0,-2.7423346999,-3.1850164602,-1.4311771511\H,0,-4.1
 888500979,-4.2654020849,0.3071610182\H,0,-2.8208004193,-5.2494367389,0
 .8513030769\H,0,-2.778472195,-3.4906209892,1.0524454749\H,0,-0.1074481
 052,-14.4848768903,-0.4044434575\H,0,-2.4133814108,-13.3146747046,-1.5
 511293317\H,0,-2.5665638453,-13.2061221833,0.2045069175\H,0,-3.5757353
 42,-15.3166943991,-0.6404633347\H,0,-2.0364841554,-15.7958592299,-1.36
 7580818\H,0,-2.1919799338,-15.6843170011,0.3979968868\H,0,1.8957301002
 ,-14.3282442864,0.6571624154\H,0,2.0450787479,-14.4280442562,-1.101223
 3687\H,0,3.2897434471,-13.6117264415,-0.1537546389\H,0,3.3466223912,-9
 .0037866002,4.6069897672\H,0,3.1651635002,-7.2567825518,4.3792601169\H
 ,0,4.6005338008,-7.7455576012,6.3838501831\H,0,5.7235789565,-8.6609117
 762,5.3633996402\H,0,5.5415951563,-6.9085422347,5.1373598181\H,0,-0.53
 56355409,-3.2926617382,-0.9114407274\\Version=ES64L-G09RevD.01\HF=-141
 9.3246493\RMSD=2.172e-09\Dipole=-1.8265877,-0.0447258,-1.1246941\Quadr
 upole=-97.5972213,225.409105,-127.8118837,-17.0574091,5.8291772,14.680
 9127\PG=C01 [X(C28H31N2O3)]\\@


 "WHERE SHALL I START, PLEASE YOUR MAJESTY?" HE ASKED.
 "BEGIN AT THE BEGINNING," THE KING SAID GRAVELY,
 "AND GO ON TILL YOU COME TO THE END: THEN STOP." 

                                      -- LEWIS CARROLL
 Job cpu time:       5 days  3 hours 28 minutes 45.0 seconds.
 File lengths (MBytes):  RWF=   5720 Int=      0 D2E=      0 Chk=    956 Scr=      1
 Normal termination of Gaussian 09 at Sat May  2 16:10:17 2020.
