 Entering Gaussian System, Link 0=g09
 Initial command:
 /opt/sys/apps/gaussian09/D.01/g09/l1.exe "/tmp/Gau-10234.inp" -scrdir="/tmp/"
 Entering Link 1 = /opt/sys/apps/gaussian09/D.01/g09/l1.exe PID=     10235.
  
 Copyright (c) 1988,1990,1992,1993,1995,1998,2003,2009,2013,
            Gaussian, Inc.  All Rights Reserved.
  
 This is part of the Gaussian(R) 09 program.  It is based on
 the Gaussian(R) 03 system (copyright 2003, Gaussian, Inc.),
 the Gaussian(R) 98 system (copyright 1998, Gaussian, Inc.),
 the Gaussian(R) 94 system (copyright 1995, Gaussian, Inc.),
 the Gaussian 92(TM) system (copyright 1992, Gaussian, Inc.),
 the Gaussian 90(TM) system (copyright 1990, Gaussian, Inc.),
 the Gaussian 88(TM) system (copyright 1988, Gaussian, Inc.),
 the Gaussian 86(TM) system (copyright 1986, Carnegie Mellon
 University), and the Gaussian 82(TM) system (copyright 1983,
 Carnegie Mellon University). Gaussian is a federally registered
 trademark of Gaussian, Inc.
  
 This software contains proprietary and confidential information,
 including trade secrets, belonging to Gaussian, Inc.
  
 This software is provided under written license and may be
 used, copied, transmitted, or stored only in accord with that
 written license.
  
 The following legend is applicable only to US Government
 contracts under FAR:
  
                    RESTRICTED RIGHTS LEGEND
  
 Use, reproduction and disclosure by the US Government is
 subject to restrictions as set forth in subparagraphs (a)
 and (c) of the Commercial Computer Software - Restricted
 Rights clause in FAR 52.227-19.
  
 Gaussian, Inc.
 340 Quinnipiac St., Bldg. 40, Wallingford CT 06492
  
  
 ---------------------------------------------------------------
 Warning -- This program may not be used in any manner that
 competes with the business of Gaussian, Inc. or will provide
 assistance to any competitor of Gaussian, Inc.  The licensee
 of this program is prohibited from giving any competitor of
 Gaussian, Inc. access to this program.  By using this program,
 the user acknowledges that Gaussian, Inc. is engaged in the
 business of creating and licensing software in the field of
 computational chemistry and represents and warrants to the
 licensee that it is not a competitor of Gaussian, Inc. and that
 it will not use this program in any manner prohibited above.
 ---------------------------------------------------------------
  

 Cite this work as:
 Gaussian 09, Revision D.01,
 M. J. Frisch, G. W. Trucks, H. B. Schlegel, G. E. Scuseria, 
 M. A. Robb, J. R. Cheeseman, G. Scalmani, V. Barone, B. Mennucci, 
 G. A. Petersson, H. Nakatsuji, M. Caricato, X. Li, H. P. Hratchian, 
 A. F. Izmaylov, J. Bloino, G. Zheng, J. L. Sonnenberg, M. Hada, 
 M. Ehara, K. Toyota, R. Fukuda, J. Hasegawa, M. Ishida, T. Nakajima, 
 Y. Honda, O. Kitao, H. Nakai, T. Vreven, J. A. Montgomery, Jr., 
 J. E. Peralta, F. Ogliaro, M. Bearpark, J. J. Heyd, E. Brothers, 
 K. N. Kudin, V. N. Staroverov, T. Keith, R. Kobayashi, J. Normand, 
 K. Raghavachari, A. Rendell, J. C. Burant, S. S. Iyengar, J. Tomasi, 
 M. Cossi, N. Rega, J. M. Millam, M. Klene, J. E. Knox, J. B. Cross, 
 V. Bakken, C. Adamo, J. Jaramillo, R. Gomperts, R. E. Stratmann, 
 O. Yazyev, A. J. Austin, R. Cammi, C. Pomelli, J. W. Ochterski, 
 R. L. Martin, K. Morokuma, V. G. Zakrzewski, G. A. Voth, 
 P. Salvador, J. J. Dannenberg, S. Dapprich, A. D. Daniels, 
 O. Farkas, J. B. Foresman, J. V. Ortiz, J. Cioslowski, 
 and D. J. Fox, Gaussian, Inc., Wallingford CT, 2013.
 
 ******************************************
 Gaussian 09:  ES64L-G09RevD.01 24-Apr-2013
                 2-May-2020 
 ******************************************
 %NProcShared=24
 Will use up to   24 processors via shared memory.
 %mem=50GB
 %oldChk=checkpoint_acet.chk
 %Chk=checkpointCPCMES.chk
 Copying data from "checkpoint_acet.chk" to current chk file "checkpointCPCMES.chk".
 ----------------------------------------------------------------------
 #p CAM-B3LYP/6-311++G** nosym density=current geom=allcheck EmpiricalD
 ispersion=GD3 SCRF=(CPCM, solvent=acetonitrile) IOP(10/74=10) TD=(NSTA
 TES=30,ROOT=1,NONEQ) iop(3/119=0810000000) iop(3/120=0810000000)
 ----------------------------------------------------------------------
 1/29=7,30=1,38=1/1;
 2/12=2,15=1,40=1/2;
 3/5=4,6=6,7=1111,11=9,14=-4,16=1,25=1,30=1,70=2101,71=1,72=2,74=-40,119=810000000,120=810000000,124=31/1,2,8,3;
 4//1;
 5/5=2,38=5,53=2/2;
 8/6=1,10=2,107=1,108=30/1;
 9/8=1,15=1,41=30,42=1,70=2,73=1/14;
 10/5=4,13=10,31=1,74=10/2;
 6/7=2,8=2,9=2,10=2,22=-1/1;
 99/5=1,9=1/99;
 Leave Link    1 at Sat May  2 11:02:14 2020, MaxMem=  6710886400 cpu:        24.3
 (Enter /opt/sys/apps/gaussian09/D.01/g09/l101.exe)
 Structure from the checkpoint file:  "checkpointCPCMES.chk"
 ---
 R6G
 ---
 Charge =  1 Multiplicity = 1
 Redundant internal coordinates found in file.
 C,0,1.4843298195,-12.4679016588,-0.3670201519
 C,0,0.0427789439,-12.4583001989,-0.4877253903
 C,0,-0.6383072465,-11.2301855264,-0.6073483624
 C,0,2.1536390485,-11.2751859886,-0.3792200697
 C,0,1.492009155,-10.0200785528,-0.503099918
 C,0,0.0771537535,-10.051529219,-0.609936973
 O,0,-0.6377323734,-8.9002440861,-0.7162633925
 C,0,2.1480436848,-8.7776671293,-0.4974296274
 C,0,3.6376662686,-8.7140027824,-0.4495822652
 C,0,4.3683147648,-8.5444760864,0.7420383518
 C,0,5.7672018045,-8.4806187469,0.6868111175
 C,0,6.4370419937,-8.5839518437,-0.5268222135
 C,0,5.7123897529,-8.7522168314,-1.7050749965
 C,0,4.3217349349,-8.8164860568,-1.6636136533
 C,0,1.3949565103,-7.5989681062,-0.6281259585
 C,0,-0.0174738644,-7.6902950163,-0.7281194698
 C,0,-0.8251981239,-6.5787290556,-0.8335459783
 C,0,-0.2472983508,-5.2933903566,-0.8481427921
 C,0,1.1898493375,-5.1588450748,-0.7478080879
 C,0,1.9531950974,-6.2892337509,-0.6441892039
 C,0,1.8201397836,-3.7915953089,-0.761293546
 N,0,-1.0055254394,-4.182279522,-0.9696532924
 C,0,-2.4672969678,-4.1437616636,-0.9998979766
 C,0,-3.1020032476,-4.2969534387,0.3853452313
 N,0,-0.6312758795,-13.6264832177,-0.4815571347
 C,0,-2.0824146978,-13.761318221,-0.5991562711
 C,0,-2.4878826609,-15.2287540795,-0.5400605799
 C,0,2.2188273834,-13.7747847945,-0.2299734027
 C,0,3.6526750724,-8.4445978184,2.0493881991
 O,0,2.4506763367,-8.5695917097,2.1811289717
 O,0,4.481706878,-8.2022377962,3.0720897777
 C,0,3.8842258188,-8.096875188,4.3962849452
 C,0,5.01048189,-7.8610451865,5.3787379777
 H,0,-1.7140942591,-11.1838944535,-0.6944478751
 H,0,3.23293948,-11.2749851462,-0.2890690077
 H,0,6.3241907876,-8.3519378404,1.6046383752
 H,0,7.518917214,-8.5346853811,-0.5523592698
 H,0,6.2250363409,-8.8338631382,-2.656250902
 H,0,3.7568722097,-8.9444665119,-2.5793854641
 H,0,-1.8936879639,-6.723037718,-0.8971996969
 H,0,3.029408009,-6.1926616772,-0.5696950819
 H,0,2.9038665802,-3.8667182854,-0.6730097183
 H,0,1.5980590044,-3.2558716408,-1.6907366039
 H,0,1.4612835851,-3.1743753598,0.0698226336
 H,0,-2.8289436206,-4.9168482485,-1.6825371604
 H,0,-2.7458408021,-3.1846912867,-1.4384315625
 H,0,-4.1911755743,-4.2642548081,0.3015195023
 H,0,-2.8222735305,-5.2467166011,0.8463277211
 H,0,-2.781186727,-3.4877115375,1.04556779
 H,0,-0.1041043502,-14.4817156374,-0.3964830444
 H,0,-2.4114409357,-13.3147533476,-1.5439640859
 H,0,-2.5636107665,-13.203585683,0.2116102668
 H,0,-3.5720094481,-15.3161345608,-0.6294328369
 H,0,-2.0330271088,-15.7954460303,-1.3568774716
 H,0,-2.1874102008,-15.681295904,0.4086533883
 H,0,1.8996986898,-14.3223141814,0.6635340625
 H,0,2.0477069723,-14.4249323083,-1.0948538965
 H,0,3.2926715259,-13.6065172193,-0.1496835075
 H,0,3.3423926731,-9.021841815,4.6035625199
 H,0,3.1674846109,-7.2731877323,4.3841565246
 H,0,4.5994361064,-7.7767754993,6.3876371308
 H,0,5.720084826,-8.691179574,5.3637571118
 H,0,5.5445230402,-6.9371539393,5.1459712077
 H,0,-0.5387755485,-3.2906029213,-0.9192849135
 Recover connectivity data from disk.
 NAtoms=     64 NQM=       64 NQMF=       0 NMMI=      0 NMMIF=      0
                NMic=       0 NMicF=      0.
                    Isotopes and Nuclear Properties:
 (Nuclear quadrupole moments (NQMom) in fm**2, nuclear magnetic moments (NMagM)
  in nuclear magnetons)

  Atom         1           2           3           4           5           6           7           8           9          10
 IAtWgt=          12          12          12          12          12          12          16          12          12          12
 AtmWgt=  12.0000000  12.0000000  12.0000000  12.0000000  12.0000000  12.0000000  15.9949146  12.0000000  12.0000000  12.0000000
 NucSpn=           0           0           0           0           0           0           0           0           0           0
 AtZEff=  -3.6000000  -3.6000000  -3.6000000  -3.6000000  -3.6000000  -3.6000000  -5.6000000  -3.6000000  -3.6000000  -3.6000000
 NQMom=    0.0000000   0.0000000   0.0000000   0.0000000   0.0000000   0.0000000   0.0000000   0.0000000   0.0000000   0.0000000
 NMagM=    0.0000000   0.0000000   0.0000000   0.0000000   0.0000000   0.0000000   0.0000000   0.0000000   0.0000000   0.0000000
 AtZNuc=   6.0000000   6.0000000   6.0000000   6.0000000   6.0000000   6.0000000   8.0000000   6.0000000   6.0000000   6.0000000

  Atom        11          12          13          14          15          16          17          18          19          20
 IAtWgt=          12          12          12          12          12          12          12          12          12          12
 AtmWgt=  12.0000000  12.0000000  12.0000000  12.0000000  12.0000000  12.0000000  12.0000000  12.0000000  12.0000000  12.0000000
 NucSpn=           0           0           0           0           0           0           0           0           0           0
 AtZEff=  -3.6000000  -3.6000000  -3.6000000  -3.6000000  -3.6000000  -3.6000000  -3.6000000  -3.6000000  -3.6000000  -3.6000000
 NQMom=    0.0000000   0.0000000   0.0000000   0.0000000   0.0000000   0.0000000   0.0000000   0.0000000   0.0000000   0.0000000
 NMagM=    0.0000000   0.0000000   0.0000000   0.0000000   0.0000000   0.0000000   0.0000000   0.0000000   0.0000000   0.0000000
 AtZNuc=   6.0000000   6.0000000   6.0000000   6.0000000   6.0000000   6.0000000   6.0000000   6.0000000   6.0000000   6.0000000

  Atom        21          22          23          24          25          26          27          28          29          30
 IAtWgt=          12          14          12          12          14          12          12          12          12          16
 AtmWgt=  12.0000000  14.0030740  12.0000000  12.0000000  14.0030740  12.0000000  12.0000000  12.0000000  12.0000000  15.9949146
 NucSpn=           0           2           0           0           2           0           0           0           0           0
 AtZEff=  -3.6000000  -4.5500000  -3.6000000  -3.6000000  -4.5500000  -3.6000000  -3.6000000  -3.6000000  -3.6000000  -5.6000000
 NQMom=    0.0000000   2.0440000   0.0000000   0.0000000   2.0440000   0.0000000   0.0000000   0.0000000   0.0000000   0.0000000
 NMagM=    0.0000000   0.4037610   0.0000000   0.0000000   0.4037610   0.0000000   0.0000000   0.0000000   0.0000000   0.0000000
 AtZNuc=   6.0000000   7.0000000   6.0000000   6.0000000   7.0000000   6.0000000   6.0000000   6.0000000   6.0000000   8.0000000

  Atom        31          32          33          34          35          36          37          38          39          40
 IAtWgt=          16          12          12           1           1           1           1           1           1           1
 AtmWgt=  15.9949146  12.0000000  12.0000000   1.0078250   1.0078250   1.0078250   1.0078250   1.0078250   1.0078250   1.0078250
 NucSpn=           0           0           0           1           1           1           1           1           1           1
 AtZEff=  -5.6000000  -3.6000000  -3.6000000  -1.0000000  -1.0000000  -1.0000000  -1.0000000  -1.0000000  -1.0000000  -1.0000000
 NQMom=    0.0000000   0.0000000   0.0000000   0.0000000   0.0000000   0.0000000   0.0000000   0.0000000   0.0000000   0.0000000
 NMagM=    0.0000000   0.0000000   0.0000000   2.7928460   2.7928460   2.7928460   2.7928460   2.7928460   2.7928460   2.7928460
 AtZNuc=   8.0000000   6.0000000   6.0000000   1.0000000   1.0000000   1.0000000   1.0000000   1.0000000   1.0000000   1.0000000

  Atom        41          42          43          44          45          46          47          48          49          50
 IAtWgt=           1           1           1           1           1           1           1           1           1           1
 AtmWgt=   1.0078250   1.0078250   1.0078250   1.0078250   1.0078250   1.0078250   1.0078250   1.0078250   1.0078250   1.0078250
 NucSpn=           1           1           1           1           1           1           1           1           1           1
 AtZEff=  -1.0000000  -1.0000000  -1.0000000  -1.0000000  -1.0000000  -1.0000000  -1.0000000  -1.0000000  -1.0000000  -1.0000000
 NQMom=    0.0000000   0.0000000   0.0000000   0.0000000   0.0000000   0.0000000   0.0000000   0.0000000   0.0000000   0.0000000
 NMagM=    2.7928460   2.7928460   2.7928460   2.7928460   2.7928460   2.7928460   2.7928460   2.7928460   2.7928460   2.7928460
 AtZNuc=   1.0000000   1.0000000   1.0000000   1.0000000   1.0000000   1.0000000   1.0000000   1.0000000   1.0000000   1.0000000

  Atom        51          52          53          54          55          56          57          58          59          60
 IAtWgt=           1           1           1           1           1           1           1           1           1           1
 AtmWgt=   1.0078250   1.0078250   1.0078250   1.0078250   1.0078250   1.0078250   1.0078250   1.0078250   1.0078250   1.0078250
 NucSpn=           1           1           1           1           1           1           1           1           1           1
 AtZEff=  -1.0000000  -1.0000000  -1.0000000  -1.0000000  -1.0000000  -1.0000000  -1.0000000  -1.0000000  -1.0000000  -1.0000000
 NQMom=    0.0000000   0.0000000   0.0000000   0.0000000   0.0000000   0.0000000   0.0000000   0.0000000   0.0000000   0.0000000
 NMagM=    2.7928460   2.7928460   2.7928460   2.7928460   2.7928460   2.7928460   2.7928460   2.7928460   2.7928460   2.7928460
 AtZNuc=   1.0000000   1.0000000   1.0000000   1.0000000   1.0000000   1.0000000   1.0000000   1.0000000   1.0000000   1.0000000

  Atom        61          62          63          64
 IAtWgt=           1           1           1           1
 AtmWgt=   1.0078250   1.0078250   1.0078250   1.0078250
 NucSpn=           1           1           1           1
 AtZEff=  -1.0000000  -1.0000000  -1.0000000  -1.0000000
 NQMom=    0.0000000   0.0000000   0.0000000   0.0000000
 NMagM=    2.7928460   2.7928460   2.7928460   2.7928460
 AtZNuc=   1.0000000   1.0000000   1.0000000   1.0000000
 Leave Link  101 at Sat May  2 11:02:14 2020, MaxMem=  6710886400 cpu:         7.0
 (Enter /opt/sys/apps/gaussian09/D.01/g09/l202.exe)
 Symmetry turned off by external request.
 Stoichiometry    C28H31N2O3(1+)
 Framework group  C1[X(C28H31N2O3)]
 Deg. of freedom   186
 Full point group                 C1      NOp   1
                          Input orientation:                          
 ---------------------------------------------------------------------
 Center     Atomic      Atomic             Coordinates (Angstroms)
 Number     Number       Type             X           Y           Z
 ---------------------------------------------------------------------
      1          6           0        1.484330  -12.467902   -0.367020
      2          6           0        0.042779  -12.458300   -0.487725
      3          6           0       -0.638307  -11.230186   -0.607348
      4          6           0        2.153639  -11.275186   -0.379220
      5          6           0        1.492009  -10.020079   -0.503100
      6          6           0        0.077154  -10.051529   -0.609937
      7          8           0       -0.637732   -8.900244   -0.716263
      8          6           0        2.148044   -8.777667   -0.497430
      9          6           0        3.637666   -8.714003   -0.449582
     10          6           0        4.368315   -8.544476    0.742038
     11          6           0        5.767202   -8.480619    0.686811
     12          6           0        6.437042   -8.583952   -0.526822
     13          6           0        5.712390   -8.752217   -1.705075
     14          6           0        4.321735   -8.816486   -1.663614
     15          6           0        1.394957   -7.598968   -0.628126
     16          6           0       -0.017474   -7.690295   -0.728119
     17          6           0       -0.825198   -6.578729   -0.833546
     18          6           0       -0.247298   -5.293390   -0.848143
     19          6           0        1.189849   -5.158845   -0.747808
     20          6           0        1.953195   -6.289234   -0.644189
     21          6           0        1.820140   -3.791595   -0.761294
     22          7           0       -1.005525   -4.182280   -0.969653
     23          6           0       -2.467297   -4.143762   -0.999898
     24          6           0       -3.102003   -4.296953    0.385345
     25          7           0       -0.631276  -13.626483   -0.481557
     26          6           0       -2.082415  -13.761318   -0.599156
     27          6           0       -2.487883  -15.228754   -0.540061
     28          6           0        2.218827  -13.774785   -0.229973
     29          6           0        3.652675   -8.444598    2.049388
     30          8           0        2.450676   -8.569592    2.181129
     31          8           0        4.481707   -8.202238    3.072090
     32          6           0        3.884226   -8.096875    4.396285
     33          6           0        5.010482   -7.861045    5.378738
     34          1           0       -1.714094  -11.183894   -0.694448
     35          1           0        3.232939  -11.274985   -0.289069
     36          1           0        6.324191   -8.351938    1.604638
     37          1           0        7.518917   -8.534685   -0.552359
     38          1           0        6.225036   -8.833863   -2.656251
     39          1           0        3.756872   -8.944467   -2.579385
     40          1           0       -1.893688   -6.723038   -0.897200
     41          1           0        3.029408   -6.192662   -0.569695
     42          1           0        2.903867   -3.866718   -0.673010
     43          1           0        1.598059   -3.255872   -1.690737
     44          1           0        1.461284   -3.174375    0.069823
     45          1           0       -2.828944   -4.916848   -1.682537
     46          1           0       -2.745841   -3.184691   -1.438432
     47          1           0       -4.191176   -4.264255    0.301520
     48          1           0       -2.822274   -5.246717    0.846328
     49          1           0       -2.781187   -3.487712    1.045568
     50          1           0       -0.104104  -14.481716   -0.396483
     51          1           0       -2.411441  -13.314753   -1.543964
     52          1           0       -2.563611  -13.203586    0.211610
     53          1           0       -3.572009  -15.316135   -0.629433
     54          1           0       -2.033027  -15.795446   -1.356877
     55          1           0       -2.187410  -15.681296    0.408653
     56          1           0        1.899699  -14.322314    0.663534
     57          1           0        2.047707  -14.424932   -1.094854
     58          1           0        3.292672  -13.606517   -0.149684
     59          1           0        3.342393   -9.021842    4.603563
     60          1           0        3.167485   -7.273188    4.384157
     61          1           0        4.599436   -7.776775    6.387637
     62          1           0        5.720085   -8.691180    5.363757
     63          1           0        5.544523   -6.937154    5.145971
     64          1           0       -0.538776   -3.290603   -0.919285
 ---------------------------------------------------------------------
 Rotational constants (GHZ):      0.1196162      0.0999194      0.0682860
 Leave Link  202 at Sat May  2 11:02:14 2020, MaxMem=  6710886400 cpu:         0.1
 (Enter /opt/sys/apps/gaussian09/D.01/g09/l301.exe)
 Standard basis: 6-311++G(d,p) (5D, 7F)
 Ernie: Thresh=  0.10000D-02 Tol=  0.10000D-05 Strict=F.
   943 basis functions,  1467 primitive gaussians,   976 cartesian basis functions
   118 alpha electrons      118 beta electrons
       nuclear repulsion energy      3331.9470911932 Hartrees.
 IExCor=20419 DFT=T Ex+Corr=CAM-B3LYP ExCW=0 ScaHFX=  1.000000
 ScaDFX=  1.000000  1.000000  1.000000  0.810000 ScalE2=  1.000000  1.000000
 IRadAn=      0 IRanWt=     -1 IRanGd=            0 ICorTp=0 IEmpDi=131
  HFx wShort=  0.000000 wLong=  0.330000 cFull=  0.190000 cShort=  0.000000 cLong=  0.810000
  DFx wShort=  0.000000 wLong=  0.330000 cFull=  0.190000 cShort=  0.000000 cLong=  0.810000
 NAtoms=   64 NActive=   64 NUniq=   64 SFac= 1.00D+00 NAtFMM=   60 NAOKFM=T Big=T
 Integral buffers will be    131072 words long.
 Raffenetti 1 integral format.
 Two-electron integral symmetry is turned off.
 R6Disp:  Grimme-D3 Dispersion energy=       -0.0468791977 Hartrees.
 Nuclear repulsion after empirical dispersion term =     3331.9002119955 Hartrees.
 ------------------------------------------------------------------------------
 Polarizable Continuum Model (PCM)
 =================================
 Model                : C-PCM.
 Atomic radii         : UFF (Universal Force Field).
 Polarization charges : Total charges.
 Charge compensation  : None.
 Solution method      : On-the-fly selection.
 Cavity type          : Scaled VdW (van der Waals Surface) (Alpha=1.100).
 Cavity algorithm     : GePol (No added spheres)
                        Default sphere list used, NSphG=   64.
                        Lebedev-Laikov grids with approx.  5.0 points / Ang**2.
                        Smoothing algorithm: Karplus/York (Gamma=1.0000).
                        Polarization charges: spherical gaussians, with
                                              point-specific exponents (IZeta= 3).
                        Self-potential: point-specific (ISelfS= 7).
                        Self-field    : sphere-specific E.n sum rule (ISelfD= 2).
 1st derivatives      : Analytical E(r).r(x)/FMM algorithm (CHGder, D1EAlg=3).
                        Cavity 1st derivative terms included.
 Solvent              : Acetonitrile, Eps=  35.688000 Eps(inf)=   1.806874
 ------------------------------------------------------------------------------
 GePol: Number of generator spheres                  =      64
 GePol: Total number of spheres                      =      64
 GePol: Number of exposed spheres                    =      64 (100.00%)
 GePol: Number of points                             =    4496
 GePol: Average weight of points                     =       0.13
 GePol: Minimum weight of points                     =   0.22D-10
 GePol: Maximum weight of points                     =    0.20577
 GePol: Number of points with low weight             =     332
 GePol: Fraction of low-weight points (<1% of avg)   =       7.38%
 GePol: Cavity surface area                          =    567.789 Ang**2
 GePol: Cavity volume                                =    632.734 Ang**3
 Leave Link  301 at Sat May  2 11:02:14 2020, MaxMem=  6710886400 cpu:         1.3
 (Enter /opt/sys/apps/gaussian09/D.01/g09/l302.exe)
 NPDir=0 NMtPBC=     1 NCelOv=     1 NCel=       1 NClECP=     1 NCelD=      1
         NCelK=      1 NCelE2=     1 NClLst=     1 CellRange=     0.0.
 One-electron integrals computed using PRISM.
 NBasis=   943 RedAO= T EigKep=  1.64D-06  NBF=   943
 NBsUse=   926 1.00D-06 EigRej=  9.44D-07 NBFU=   926
 Precomputing XC quadrature grid using
 IXCGrd= 4 IRadAn=           0 IRanWt=          -1 IRanGd=           0 AccXCQ= 0.00D+00.
 Generated NRdTot=       0 NPtTot=           0 NUsed=           0 NTot=          32
 NSgBfM=   935   935   935   935   935 MxSgAt=    64 MxSgA2=    64.
 Leave Link  302 at Sat May  2 11:02:16 2020, MaxMem=  6710886400 cpu:        48.1
 (Enter /opt/sys/apps/gaussian09/D.01/g09/l308.exe)
 Leave Link  308 at Sat May  2 11:02:17 2020, MaxMem=  6710886400 cpu:         5.2
 (Enter /opt/sys/apps/gaussian09/D.01/g09/l303.exe)
 DipDrv:  MaxL=1.
 Leave Link  303 at Sat May  2 11:02:17 2020, MaxMem=  6710886400 cpu:         3.4
 (Enter /opt/sys/apps/gaussian09/D.01/g09/l401.exe)
 ExpMin= 3.60D-02 ExpMax= 8.59D+03 ExpMxC= 1.30D+03 IAcc=3 IRadAn=         5 AccDes= 0.00D+00
 Harris functional with IExCor=20419 and IRadAn=       5 diagonalized for initial guess.
 HarFok:  IExCor=20419 AccDes= 0.00D+00 IRadAn=         5 IDoV= 1 UseB2=F ITyADJ=14
 ICtDFT=  3500011 ScaDFX=  1.000000  1.000000  1.000000  1.000000
 FoFCou: FMM=F IPFlag=           0 FMFlag=      100000 FMFlg1=        2001
         NFxFlg=           0 DoJE=T BraDBF=F KetDBF=T FulRan=T
         wScrn=  0.000000 ICntrl=     500 IOpCl=  0 I1Cent=   200000004 NGrid=           0
         NMat0=    1 NMatS0=      1 NMatT0=    0 NMatD0=    1 NMtDS0=    0 NMtDT0=    0
 Symmetry not used in FoFCou.
 Harris En= -1349.48282146772    
 JPrj=0 DoOrth=F DoCkMO=F.
 Leave Link  401 at Sat May  2 11:02:25 2020, MaxMem=  6710886400 cpu:       161.2
 (Enter /opt/sys/apps/gaussian09/D.01/g09/l502.exe)
 Closed shell SCF:
 Using DIIS extrapolation, IDIIS=  1040.
 Two-electron integral symmetry not used.
 IVT=     2905686 IEndB=     2905686 NGot=  6710886400 MDV=  6708950907
 LenX=  6708950907 LenY=  6707997355
 Requested convergence on RMS density matrix=1.00D-08 within 128 cycles.
 Requested convergence on MAX density matrix=1.00D-06.
 Requested convergence on             energy=1.00D-06.
 No special actions if energy rises.
 Fock matrices will be formed incrementally for  20 cycles.

 Cycle   1  Pass 1  IDiag  1:
 FoFJK:  IHMeth= 1 ICntrl=       0 DoSepK=T KAlg= 0 I1Cent=   0 FoldK=F
 IRaf=         1 NMat=   1 IRICut=       1 DoRegI=T DoRafI=F ISym2E= 0.
 FoFCou: FMM=T IPFlag=           0 FMFlag=      100000 FMFlg1=        2001
         NFxFlg=           0 DoJE=T BraDBF=F KetDBF=F FulRan=T
         wScrn=  0.000000 ICntrl=     500 IOpCl=  0 I1Cent=           0 NGrid=           0
         NMat0=    1 NMatS0=      1 NMatT0=    0 NMatD0=    1 NMtDS0=    0 NMtDT0=    0
 Symmetry not used in FoFCou.
 FMM levels:  10  Number of levels for PrismC:   9
 Inv3:  Mode=1 IEnd=    60642048.
 Iteration    1 A*A^-1 deviation from unit magnitude is 1.04D-14 for   4493.
 Iteration    1 A*A^-1 deviation from orthogonality  is 2.47D-15 for   3459   1744.
 Iteration    1 A^-1*A deviation from unit magnitude is 1.02D-14 for   4493.
 Iteration    1 A^-1*A deviation from orthogonality  is 1.90D-15 for   4493   4483.
 E= -1418.79162815425    
 DIIS: error= 4.79D-02 at cycle   1 NSaved=   1.
 NSaved= 1 IEnMin= 1 EnMin= -1418.79162815425     IErMin= 1 ErrMin= 4.79D-02
 ErrMax= 4.79D-02  0.00D+00 EMaxC= 1.00D-01 BMatC= 2.55D+00 BMatP= 2.55D+00
 IDIUse=3 WtCom= 5.21D-01 WtEn= 4.79D-01
 Coeff-Com:  0.100D+01
 Coeff-En:   0.100D+01
 Coeff:      0.100D+01
 Gap=     0.347 Goal=   None    Shift=    0.000
 GapD=    0.347 DampG=1.000 DampE=0.500 DampFc=0.5000 IDamp=-1.
 Damping current iteration by 5.00D-01
 RMSDP=8.04D-03 MaxDP=1.42D+00              OVMax= 1.61D-01

 Cycle   2  Pass 1  IDiag  1:
 RMSU=  3.87D-03    CP:  1.04D+00
 E= -1419.05045108543     Delta-E=       -0.258822931178 Rises=F Damp=T
 DIIS: error= 2.12D-02 at cycle   2 NSaved=   2.
 NSaved= 2 IEnMin= 2 EnMin= -1419.05045108543     IErMin= 2 ErrMin= 2.12D-02
 ErrMax= 2.12D-02  0.00D+00 EMaxC= 1.00D-01 BMatC= 5.08D-01 BMatP= 2.55D+00
 IDIUse=3 WtCom= 7.88D-01 WtEn= 2.12D-01
 Coeff-Com: -0.532D+00 0.153D+01
 Coeff-En:   0.000D+00 0.100D+01
 Coeff:     -0.419D+00 0.142D+01
 Gap=     0.261 Goal=   None    Shift=    0.000
 RMSDP=4.03D-03 MaxDP=6.62D-01 DE=-2.59D-01 OVMax= 1.37D-01

 Cycle   3  Pass 1  IDiag  1:
 RMSU=  3.53D-03    CP:  1.06D+00  1.47D+00
 E= -1419.24556850980     Delta-E=       -0.195117424374 Rises=F Damp=F
 DIIS: error= 1.21D-02 at cycle   3 NSaved=   3.
 NSaved= 3 IEnMin= 3 EnMin= -1419.24556850980     IErMin= 3 ErrMin= 1.21D-02
 ErrMax= 1.21D-02  0.00D+00 EMaxC= 1.00D-01 BMatC= 1.11D-01 BMatP= 5.08D-01
 IDIUse=3 WtCom= 8.79D-01 WtEn= 1.21D-01
 Coeff-Com: -0.311D+00 0.674D+00 0.636D+00
 Coeff-En:   0.000D+00 0.000D+00 0.100D+01
 Coeff:     -0.273D+00 0.593D+00 0.680D+00
 Gap=     0.251 Goal=   None    Shift=    0.000
 RMSDP=1.78D-03 MaxDP=2.23D-01 DE=-1.95D-01 OVMax= 5.03D-02

 Cycle   4  Pass 1  IDiag  1:
 RMSU=  7.93D-04    CP:  1.03D+00  1.73D+00  8.06D-01
 E= -1419.31827971374     Delta-E=       -0.072711203940 Rises=F Damp=F
 DIIS: error= 3.52D-03 at cycle   4 NSaved=   4.
 NSaved= 4 IEnMin= 4 EnMin= -1419.31827971374     IErMin= 4 ErrMin= 3.52D-03
 ErrMax= 3.52D-03  0.00D+00 EMaxC= 1.00D-01 BMatC= 8.02D-03 BMatP= 1.11D-01
 IDIUse=3 WtCom= 9.65D-01 WtEn= 3.52D-02
 Coeff-Com: -0.116D+00 0.247D+00 0.343D+00 0.525D+00
 Coeff-En:   0.000D+00 0.000D+00 0.000D+00 0.100D+01
 Coeff:     -0.112D+00 0.238D+00 0.331D+00 0.542D+00
 Gap=     0.249 Goal=   None    Shift=    0.000
 RMSDP=5.15D-04 MaxDP=7.11D-02 DE=-7.27D-02 OVMax= 9.58D-03

 Cycle   5  Pass 1  IDiag  1:
 RMSU=  2.72D-04    CP:  1.04D+00  1.73D+00  8.33D-01  6.45D-01
 E= -1419.32351604191     Delta-E=       -0.005236328165 Rises=F Damp=F
 DIIS: error= 4.09D-04 at cycle   5 NSaved=   5.
 NSaved= 5 IEnMin= 5 EnMin= -1419.32351604191     IErMin= 5 ErrMin= 4.09D-04
 ErrMax= 4.09D-04  0.00D+00 EMaxC= 1.00D-01 BMatC= 1.44D-04 BMatP= 8.02D-03
 IDIUse=3 WtCom= 9.96D-01 WtEn= 4.09D-03
 Coeff-Com:  0.145D-01-0.324D-01-0.309D-02 0.950D-01 0.926D+00
 Coeff-En:   0.000D+00 0.000D+00 0.000D+00 0.000D+00 0.100D+01
 Coeff:      0.144D-01-0.323D-01-0.307D-02 0.946D-01 0.926D+00
 Gap=     0.251 Goal=   None    Shift=    0.000
 RMSDP=2.22D-04 MaxDP=3.15D-02 DE=-5.24D-03 OVMax= 6.75D-03

 Cycle   6  Pass 1  IDiag  1:
 RMSU=  1.10D-04    CP:  1.03D+00  1.76D+00  8.51D-01  7.05D-01  1.37D+00
 E= -1419.32372909262     Delta-E=       -0.000213050711 Rises=F Damp=F
 DIIS: error= 3.02D-04 at cycle   6 NSaved=   6.
 NSaved= 6 IEnMin= 6 EnMin= -1419.32372909262     IErMin= 6 ErrMin= 3.02D-04
 ErrMax= 3.02D-04  0.00D+00 EMaxC= 1.00D-01 BMatC= 5.73D-05 BMatP= 1.44D-04
 IDIUse=3 WtCom= 9.97D-01 WtEn= 3.02D-03
 Coeff-Com:  0.223D-01-0.482D-01-0.468D-01-0.327D-01 0.458D+00 0.648D+00
 Coeff-En:   0.000D+00 0.000D+00 0.000D+00 0.000D+00 0.000D+00 0.100D+01
 Coeff:      0.222D-01-0.481D-01-0.467D-01-0.326D-01 0.456D+00 0.649D+00
 Gap=     0.252 Goal=   None    Shift=    0.000
 RMSDP=7.61D-05 MaxDP=9.00D-03 DE=-2.13D-04 OVMax= 2.57D-03

 Cycle   7  Pass 1  IDiag  1:
 RMSU=  3.58D-05    CP:  1.03D+00  1.77D+00  8.53D-01  7.16D-01  1.48D+00
                    CP:  1.07D+00
 E= -1419.32379156558     Delta-E=       -0.000062472962 Rises=F Damp=F
 DIIS: error= 7.46D-05 at cycle   7 NSaved=   7.
 NSaved= 7 IEnMin= 7 EnMin= -1419.32379156558     IErMin= 7 ErrMin= 7.46D-05
 ErrMax= 7.46D-05  0.00D+00 EMaxC= 1.00D-01 BMatC= 3.44D-06 BMatP= 5.73D-05
 IDIUse=1 WtCom= 1.00D+00 WtEn= 0.00D+00
 Coeff-Com:  0.370D-02-0.778D-02-0.114D-01-0.216D-01-0.602D-02 0.152D+00
 Coeff-Com:  0.891D+00
 Coeff:      0.370D-02-0.778D-02-0.114D-01-0.216D-01-0.602D-02 0.152D+00
 Coeff:      0.891D+00
 Gap=     0.252 Goal=   None    Shift=    0.000
 RMSDP=2.43D-05 MaxDP=2.26D-03 DE=-6.25D-05 OVMax= 1.87D-03

 Cycle   8  Pass 1  IDiag  1:
 RMSU=  1.04D-05    CP:  1.03D+00  1.77D+00  8.51D-01  7.12D-01  1.53D+00
                    CP:  1.14D+00  1.22D+00
 E= -1419.32380004377     Delta-E=       -0.000008478189 Rises=F Damp=F
 DIIS: error= 2.97D-05 at cycle   8 NSaved=   8.
 NSaved= 8 IEnMin= 8 EnMin= -1419.32380004377     IErMin= 8 ErrMin= 2.97D-05
 ErrMax= 2.97D-05  0.00D+00 EMaxC= 1.00D-01 BMatC= 9.21D-07 BMatP= 3.44D-06
 IDIUse=1 WtCom= 1.00D+00 WtEn= 0.00D+00
 Coeff-Com: -0.278D-02 0.608D-02 0.474D-02-0.239D-02-0.811D-01-0.619D-01
 Coeff-Com:  0.332D+00 0.805D+00
 Coeff:     -0.278D-02 0.608D-02 0.474D-02-0.239D-02-0.811D-01-0.619D-01
 Coeff:      0.332D+00 0.805D+00
 Gap=     0.252 Goal=   None    Shift=    0.000
 RMSDP=9.54D-06 MaxDP=9.02D-04 DE=-8.48D-06 OVMax= 8.93D-04

 Cycle   9  Pass 1  IDiag  1:
 RMSU=  5.64D-06    CP:  1.03D+00  1.77D+00  8.50D-01  7.12D-01  1.53D+00
                    CP:  1.17D+00  1.36D+00  1.26D+00
 E= -1419.32380195999     Delta-E=       -0.000001916222 Rises=F Damp=F
 DIIS: error= 1.38D-05 at cycle   9 NSaved=   9.
 NSaved= 9 IEnMin= 9 EnMin= -1419.32380195999     IErMin= 9 ErrMin= 1.38D-05
 ErrMax= 1.38D-05  0.00D+00 EMaxC= 1.00D-01 BMatC= 1.37D-07 BMatP= 9.21D-07
 IDIUse=1 WtCom= 1.00D+00 WtEn= 0.00D+00
 Coeff-Com: -0.123D-02 0.264D-02 0.309D-02 0.219D-02-0.167D-01-0.446D-01
 Coeff-Com: -0.752D-01 0.214D+00 0.916D+00
 Coeff:     -0.123D-02 0.264D-02 0.309D-02 0.219D-02-0.167D-01-0.446D-01
 Coeff:     -0.752D-01 0.214D+00 0.916D+00
 Gap=     0.252 Goal=   None    Shift=    0.000
 RMSDP=5.66D-06 MaxDP=8.54D-04 DE=-1.92D-06 OVMax= 4.19D-04

 Cycle  10  Pass 1  IDiag  1:
 RMSU=  3.12D-06    CP:  1.03D+00  1.77D+00  8.49D-01  7.11D-01  1.53D+00
                    CP:  1.15D+00  1.45D+00  1.44D+00  1.15D+00
 E= -1419.32380232535     Delta-E=       -0.000000365359 Rises=F Damp=F
 DIIS: error= 6.15D-06 at cycle  10 NSaved=  10.
 NSaved=10 IEnMin=10 EnMin= -1419.32380232535     IErMin=10 ErrMin= 6.15D-06
 ErrMax= 6.15D-06  0.00D+00 EMaxC= 1.00D-01 BMatC= 1.88D-08 BMatP= 1.37D-07
 IDIUse=1 WtCom= 1.00D+00 WtEn= 0.00D+00
 Coeff-Com:  0.118D-03-0.268D-03 0.530D-04 0.588D-03 0.783D-02-0.453D-02
 Coeff-Com: -0.716D-01-0.541D-01 0.281D+00 0.840D+00
 Coeff:      0.118D-03-0.268D-03 0.530D-04 0.588D-03 0.783D-02-0.453D-02
 Coeff:     -0.716D-01-0.541D-01 0.281D+00 0.840D+00
 Gap=     0.252 Goal=   None    Shift=    0.000
 RMSDP=1.76D-06 MaxDP=1.21D-04 DE=-3.65D-07 OVMax= 1.75D-04

 Cycle  11  Pass 1  IDiag  1:
 RMSU=  9.49D-07    CP:  1.03D+00  1.77D+00  8.49D-01  7.10D-01  1.53D+00
                    CP:  1.15D+00  1.45D+00  1.50D+00  1.22D+00  1.13D+00
 E= -1419.32380238386     Delta-E=       -0.000000058515 Rises=F Damp=F
 DIIS: error= 3.44D-06 at cycle  11 NSaved=  11.
 NSaved=11 IEnMin=11 EnMin= -1419.32380238386     IErMin=11 ErrMin= 3.44D-06
 ErrMax= 3.44D-06  0.00D+00 EMaxC= 1.00D-01 BMatC= 3.26D-09 BMatP= 1.88D-08
 IDIUse=1 WtCom= 1.00D+00 WtEn= 0.00D+00
 Coeff-Com:  0.195D-03-0.419D-03-0.427D-03-0.142D-03 0.406D-02 0.518D-02
 Coeff-Com: -0.320D-02-0.413D-01-0.919D-01 0.188D+00 0.940D+00
 Coeff:      0.195D-03-0.419D-03-0.427D-03-0.142D-03 0.406D-02 0.518D-02
 Coeff:     -0.320D-02-0.413D-01-0.919D-01 0.188D+00 0.940D+00
 Gap=     0.252 Goal=   None    Shift=    0.000
 RMSDP=1.11D-06 MaxDP=1.46D-04 DE=-5.85D-08 OVMax= 5.84D-05

 Cycle  12  Pass 1  IDiag  1:
 RMSU=  3.97D-07    CP:  1.03D+00  1.77D+00  8.49D-01  7.10D-01  1.53D+00
                    CP:  1.15D+00  1.46D+00  1.49D+00  1.21D+00  1.37D+00
                    CP:  1.40D+00
 E= -1419.32380239660     Delta-E=       -0.000000012731 Rises=F Damp=F
 DIIS: error= 1.81D-06 at cycle  12 NSaved=  12.
 NSaved=12 IEnMin=12 EnMin= -1419.32380239660     IErMin=12 ErrMin= 1.81D-06
 ErrMax= 1.81D-06  0.00D+00 EMaxC= 1.00D-01 BMatC= 5.17D-10 BMatP= 3.26D-09
 IDIUse=1 WtCom= 1.00D+00 WtEn= 0.00D+00
 Coeff-Com:  0.144D-04-0.290D-04-0.883D-04-0.107D-03-0.660D-03 0.204D-02
 Coeff-Com:  0.139D-01 0.386D-02-0.828D-01-0.100D+00 0.180D+00 0.984D+00
 Coeff:      0.144D-04-0.290D-04-0.883D-04-0.107D-03-0.660D-03 0.204D-02
 Coeff:      0.139D-01 0.386D-02-0.828D-01-0.100D+00 0.180D+00 0.984D+00
 Gap=     0.252 Goal=   None    Shift=    0.000
 RMSDP=7.33D-07 MaxDP=8.30D-05 DE=-1.27D-08 OVMax= 3.37D-05

 Cycle  13  Pass 1  IDiag  1:
 RMSU=  2.58D-07    CP:  1.03D+00  1.77D+00  8.49D-01  7.10D-01  1.53D+00
                    CP:  1.15D+00  1.45D+00  1.49D+00  1.19D+00  1.48D+00
                    CP:  1.66D+00  1.50D+00
 E= -1419.32380239974     Delta-E=       -0.000000003145 Rises=F Damp=F
 DIIS: error= 6.84D-07 at cycle  13 NSaved=  13.
 NSaved=13 IEnMin=13 EnMin= -1419.32380239974     IErMin=13 ErrMin= 6.84D-07
 ErrMax= 6.84D-07  0.00D+00 EMaxC= 1.00D-01 BMatC= 1.23D-10 BMatP= 5.17D-10
 IDIUse=1 WtCom= 1.00D+00 WtEn= 0.00D+00
 Coeff-Com: -0.242D-04 0.524D-04 0.485D-04-0.174D-04-0.767D-03-0.512D-03
 Coeff-Com:  0.224D-02 0.800D-02-0.183D-02-0.411D-01-0.164D+00 0.173D+00
 Coeff-Com:  0.103D+01
 Coeff:     -0.242D-04 0.524D-04 0.485D-04-0.174D-04-0.767D-03-0.512D-03
 Coeff:      0.224D-02 0.800D-02-0.183D-02-0.411D-01-0.164D+00 0.173D+00
 Coeff:      0.103D+01
 Gap=     0.252 Goal=   None    Shift=    0.000
 RMSDP=4.95D-07 MaxDP=5.42D-05 DE=-3.15D-09 OVMax= 1.83D-05

 Cycle  14  Pass 1  IDiag  1:
 RMSU=  8.04D-08    CP:  1.03D+00  1.77D+00  8.49D-01  7.09D-01  1.53D+00
                    CP:  1.15D+00  1.45D+00  1.48D+00  1.17D+00  1.55D+00
                    CP:  1.77D+00  1.90D+00  1.60D+00
 E= -1419.32380240033     Delta-E=       -0.000000000588 Rises=F Damp=F
 DIIS: error= 2.76D-07 at cycle  14 NSaved=  14.
 NSaved=14 IEnMin=14 EnMin= -1419.32380240033     IErMin=14 ErrMin= 2.76D-07
 ErrMax= 2.76D-07  0.00D+00 EMaxC= 1.00D-01 BMatC= 2.41D-11 BMatP= 1.23D-10
 IDIUse=1 WtCom= 1.00D+00 WtEn= 0.00D+00
 Coeff-Com: -0.686D-05 0.147D-04 0.251D-04 0.306D-05-0.946D-04-0.414D-03
 Coeff-Com: -0.163D-02 0.232D-02 0.133D-01 0.647D-02-0.852D-01-0.107D+00
 Coeff-Com:  0.326D+00 0.847D+00
 Coeff:     -0.686D-05 0.147D-04 0.251D-04 0.306D-05-0.946D-04-0.414D-03
 Coeff:     -0.163D-02 0.232D-02 0.133D-01 0.647D-02-0.852D-01-0.107D+00
 Coeff:      0.326D+00 0.847D+00
 Gap=     0.252 Goal=   None    Shift=    0.000
 RMSDP=1.59D-07 MaxDP=2.02D-05 DE=-5.88D-10 OVMax= 5.78D-06

 Cycle  15  Pass 1  IDiag  1:
 RMSU=  3.87D-08    CP:  1.03D+00  1.77D+00  8.49D-01  7.09D-01  1.53D+00
                    CP:  1.15D+00  1.45D+00  1.48D+00  1.16D+00  1.56D+00
                    CP:  1.81D+00  2.07D+00  1.81D+00  1.18D+00
 E= -1419.32380240021     Delta-E=        0.000000000118 Rises=F Damp=F
 DIIS: error= 9.37D-08 at cycle  15 NSaved=  15.
 NSaved=15 IEnMin=14 EnMin= -1419.32380240033     IErMin=15 ErrMin= 9.37D-08
 ErrMax= 9.37D-08  0.00D+00 EMaxC= 1.00D-01 BMatC= 3.44D-12 BMatP= 2.41D-11
 IDIUse=1 WtCom= 1.00D+00 WtEn= 0.00D+00
 Coeff-Com:  0.152D-05-0.336D-05 0.178D-06 0.649D-05 0.884D-04-0.242D-04
 Coeff-Com: -0.862D-03-0.811D-03 0.352D-02 0.883D-02 0.104D-01-0.595D-01
 Coeff-Com: -0.128D+00 0.235D+00 0.931D+00
 Coeff:      0.152D-05-0.336D-05 0.178D-06 0.649D-05 0.884D-04-0.242D-04
 Coeff:     -0.862D-03-0.811D-03 0.352D-02 0.883D-02 0.104D-01-0.595D-01
 Coeff:     -0.128D+00 0.235D+00 0.931D+00
 Gap=     0.252 Goal=   None    Shift=    0.000
 RMSDP=9.39D-08 MaxDP=7.97D-06 DE= 1.18D-10 OVMax= 3.04D-06

 Cycle  16  Pass 1  IDiag  1:
 RMSU=  1.81D-08    CP:  1.03D+00  1.77D+00  8.49D-01  7.09D-01  1.53D+00
                    CP:  1.15D+00  1.45D+00  1.48D+00  1.16D+00  1.57D+00
                    CP:  1.82D+00  2.14D+00  1.94D+00  1.42D+00  1.34D+00
 E= -1419.32380240028     Delta-E=       -0.000000000074 Rises=F Damp=F
 DIIS: error= 2.21D-08 at cycle  16 NSaved=  16.
 NSaved=16 IEnMin=14 EnMin= -1419.32380240033     IErMin=16 ErrMin= 2.21D-08
 ErrMax= 2.21D-08  0.00D+00 EMaxC= 1.00D-01 BMatC= 6.69D-13 BMatP= 3.44D-12
 IDIUse=1 WtCom= 1.00D+00 WtEn= 0.00D+00
 Coeff-Com:  0.834D-06-0.183D-05-0.204D-05 0.296D-05 0.364D-04 0.377D-04
 Coeff-Com: -0.742D-04-0.514D-03-0.384D-03 0.194D-02 0.137D-01-0.554D-02
 Coeff-Com: -0.793D-01-0.502D-01 0.290D+00 0.831D+00
 Coeff:      0.834D-06-0.183D-05-0.204D-05 0.296D-05 0.364D-04 0.377D-04
 Coeff:     -0.742D-04-0.514D-03-0.384D-03 0.194D-02 0.137D-01-0.554D-02
 Coeff:     -0.793D-01-0.502D-01 0.290D+00 0.831D+00
 Gap=     0.252 Goal=   None    Shift=    0.000
 RMSDP=3.20D-08 MaxDP=2.50D-06 DE=-7.37D-11 OVMax= 1.06D-06

 Cycle  17  Pass 1  IDiag  1:
 RMSU=  2.00D-08    CP:  1.03D+00  1.77D+00  8.49D-01  7.09D-01  1.53D+00
                    CP:  1.15D+00  1.45D+00  1.48D+00  1.16D+00  1.57D+00
                    CP:  1.82D+00  2.17D+00  1.97D+00  1.48D+00  1.67D+00
                    CP:  1.64D+00
 E= -1419.32380240035     Delta-E=       -0.000000000070 Rises=F Damp=F
 DIIS: error= 1.51D-08 at cycle  17 NSaved=  17.
 NSaved=17 IEnMin=17 EnMin= -1419.32380240035     IErMin=17 ErrMin= 1.51D-08
 ErrMax= 1.51D-08  0.00D+00 EMaxC= 1.00D-01 BMatC= 1.09D-13 BMatP= 6.69D-13
 IDIUse=1 WtCom= 1.00D+00 WtEn= 0.00D+00
 Coeff-Com: -0.958D-07 0.223D-06-0.636D-06-0.784D-06-0.797D-05 0.140D-04
 Coeff-Com:  0.151D-03 0.196D-04-0.814D-03-0.136D-02 0.158D-02 0.104D-01
 Coeff-Com:  0.457D-02-0.631D-01-0.747D-01 0.202D+00 0.921D+00
 Coeff:     -0.958D-07 0.223D-06-0.636D-06-0.784D-06-0.797D-05 0.140D-04
 Coeff:      0.151D-03 0.196D-04-0.814D-03-0.136D-02 0.158D-02 0.104D-01
 Coeff:      0.457D-02-0.631D-01-0.747D-01 0.202D+00 0.921D+00
 Gap=     0.252 Goal=   None    Shift=    0.000
 RMSDP=3.55D-08 MaxDP=2.98D-06 DE=-7.00D-11 OVMax= 6.43D-07

 Cycle  18  Pass 1  IDiag  1:
 RMSU=  1.50D-08    CP:  1.03D+00  1.77D+00  8.49D-01  7.09D-01  1.53D+00
                    CP:  1.15D+00  1.45D+00  1.48D+00  1.16D+00  1.57D+00
                    CP:  1.81D+00  2.18D+00  1.97D+00  1.53D+00  1.93D+00
                    CP:  2.58D+00  2.13D+00
 E= -1419.32380240016     Delta-E=        0.000000000196 Rises=F Damp=F
 DIIS: error= 9.02D-09 at cycle  18 NSaved=  18.
 NSaved=18 IEnMin=17 EnMin= -1419.32380240035     IErMin=18 ErrMin= 9.02D-09
 ErrMax= 9.02D-09  0.00D+00 EMaxC= 1.00D-01 BMatC= 4.36D-14 BMatP= 1.09D-13
 IDIUse=1 WtCom= 1.00D+00 WtEn= 0.00D+00
 Coeff-Com: -0.748D-07 0.169D-06-0.371D-07-0.973D-06-0.530D-05-0.122D-05
 Coeff-Com:  0.505D-04 0.726D-04-0.164D-03-0.607D-03-0.131D-02 0.368D-02
 Coeff-Com:  0.121D-01-0.140D-01-0.560D-01-0.735D-01 0.247D+00 0.883D+00
 Coeff:     -0.748D-07 0.169D-06-0.371D-07-0.973D-06-0.530D-05-0.122D-05
 Coeff:      0.505D-04 0.726D-04-0.164D-03-0.607D-03-0.131D-02 0.368D-02
 Coeff:      0.121D-01-0.140D-01-0.560D-01-0.735D-01 0.247D+00 0.883D+00
 Gap=     0.252 Goal=   None    Shift=    0.000
 RMSDP=5.12D-08 MaxDP=3.45D-06 DE= 1.96D-10 OVMax= 3.70D-07

 Cycle  19  Pass 1  IDiag  1:
 RMSU=  2.83D-08    CP:  1.03D+00  1.77D+00  8.49D-01  7.09D-01  1.53D+00
                    CP:  1.15D+00  1.45D+00  1.48D+00  1.16D+00  1.57D+00
                    CP:  1.81D+00  2.19D+00  1.98D+00  1.59D+00  2.20D+00
                    CP:  3.00D+00  3.00D+00  2.35D+00
 E= -1419.32380240017     Delta-E=       -0.000000000015 Rises=F Damp=F
 DIIS: error= 5.79D-09 at cycle  19 NSaved=  19.
 NSaved=19 IEnMin=17 EnMin= -1419.32380240035     IErMin=19 ErrMin= 5.79D-09
 ErrMax= 5.79D-09  0.00D+00 EMaxC= 1.00D-01 BMatC= 3.60D-14 BMatP= 4.36D-14
 IDIUse=1 WtCom= 1.00D+00 WtEn= 0.00D+00
 Coeff-Com: -0.504D-07 0.112D-06-0.188D-07-0.599D-06-0.324D-05-0.109D-05
 Coeff-Com:  0.311D-04 0.440D-04-0.102D-03-0.386D-03-0.800D-03 0.229D-02
 Coeff-Com:  0.731D-02-0.910D-02-0.337D-01-0.421D-01 0.147D+00 0.495D+00
 Coeff-Com:  0.434D+00
 Coeff:     -0.504D-07 0.112D-06-0.188D-07-0.599D-06-0.324D-05-0.109D-05
 Coeff:      0.311D-04 0.440D-04-0.102D-03-0.386D-03-0.800D-03 0.229D-02
 Coeff:      0.731D-02-0.910D-02-0.337D-01-0.421D-01 0.147D+00 0.495D+00
 Coeff:      0.434D+00
 Gap=     0.252 Goal=   None    Shift=    0.000
 RMSDP=2.64D-08 MaxDP=1.52D-06 DE=-1.46D-11 OVMax= 8.69D-08

 Cycle  20  Pass 1  IDiag  1:
 RMSU=  8.53D-09    CP:  1.03D+00  1.77D+00  8.49D-01  7.09D-01  1.53D+00
                    CP:  1.15D+00  1.45D+00  1.48D+00  1.16D+00  1.57D+00
                    CP:  1.80D+00  2.20D+00  1.99D+00  1.61D+00  2.33D+00
                    CP:  3.00D+00  3.00D+00  3.00D+00  1.72D+00
 E= -1419.32380240045     Delta-E=       -0.000000000276 Rises=F Damp=F
 DIIS: error= 7.89D-09 at cycle  20 NSaved=  20.
 NSaved=20 IEnMin=20 EnMin= -1419.32380240045     IErMin=19 ErrMin= 5.79D-09
 ErrMax= 7.89D-09  0.00D+00 EMaxC= 1.00D-01 BMatC= 4.70D-14 BMatP= 3.60D-14
 IDIUse=1 WtCom= 1.00D+00 WtEn= 0.00D+00
 Large coefficients: NSaved= 20 BigCof=    0.00 CofMax=   10.00 Det=-5.23D-15
 Inversion failed.  Reducing to 19 matrices.
 Large coefficients: NSaved= 19 BigCof=    0.00 CofMax=   10.00 Det=-5.23D-15
 Inversion failed.  Reducing to 18 matrices.
 Large coefficients: NSaved= 18 BigCof=    0.00 CofMax=   10.00 Det=-5.24D-15
 Inversion failed.  Reducing to 17 matrices.
 Large coefficients: NSaved= 17 BigCof=    0.00 CofMax=   10.00 Det=-5.37D-15
 Inversion failed.  Reducing to 16 matrices.
 Large coefficients: NSaved= 16 BigCof=    0.00 CofMax=   10.00 Det=-5.37D-15
 Inversion failed.  Reducing to 15 matrices.
 Coeff-Com: -0.839D-06 0.125D-04 0.143D-04-0.776D-04-0.235D-03-0.334D-03
 Coeff-Com:  0.178D-02 0.443D-02-0.885D-02-0.245D-01-0.303D-01 0.125D+00
 Coeff-Com:  0.458D+00 0.582D+00-0.107D+00
 Coeff:     -0.839D-06 0.125D-04 0.143D-04-0.776D-04-0.235D-03-0.334D-03
 Coeff:      0.178D-02 0.443D-02-0.885D-02-0.245D-01-0.303D-01 0.125D+00
 Coeff:      0.458D+00 0.582D+00-0.107D+00
 Gap=     0.252 Goal=   None    Shift=    0.000
 RMSDP=2.93D-09 MaxDP=2.31D-07 DE=-2.76D-10 OVMax= 4.77D-09

 Error on total polarization charges =  0.02088
 SCF Done:  E(RCAM-B3LYP) =  -1419.32380240     A.U. after   20 cycles
            NFock= 20  Conv=0.29D-08     -V/T= 2.0041
 KE= 1.413481735079D+03 PE=-9.943313120280D+03 EE= 3.778607370805D+03
 Leave Link  502 at Sat May  2 11:12:55 2020, MaxMem=  6710886400 cpu:     14606.9
 (Enter /opt/sys/apps/gaussian09/D.01/g09/l801.exe)
 DoSCS=F DFT=T ScalE2(SS,OS)=  1.000000  1.000000
 ExpMin= 3.60D-02 ExpMax= 8.59D+03 ExpMxC= 1.30D+03 IAcc=3 IRadAn=         5 AccDes= 0.00D+00
 HarFok:  IExCor=  205 AccDes= 0.00D+00 IRadAn=         5 IDoV=-2 UseB2=F ITyADJ=14
 ICtDFT= 12500011 ScaDFX=  1.000000  1.000000  1.000000  1.000000
 Largest valence mixing into a core orbital is  4.58D-05
 Largest core mixing into a valence orbital is  1.03D-05
 Range of M.O.s used for correlation:    34   926
 NBasis=   943 NAE=   118 NBE=   118 NFC=    33 NFV=     0
 NROrb=    893 NOA=    85 NOB=    85 NVA=   808 NVB=   808

 **** Warning!!: The largest alpha MO coefficient is  0.85964563D+02

 Leave Link  801 at Sat May  2 11:12:56 2020, MaxMem=  6710886400 cpu:        11.0
 (Enter /opt/sys/apps/gaussian09/D.01/g09/l914.exe)
 RHF ground state
 MDV=  6710886400 DFT=T DoStab=F Mixed=T DoRPA=T DoScal=F NonHer=T
 Would need an additional        599111800000 words for in-memory AO integral storage.
 NEqPCM:  Using non-equilibrium solvation (IEInf=1, Eps=  35.6880, EpsInf=   1.8069)
 Inv3:  Mode=1 IEnd=    60642048.
 Iteration    1 A*A^-1 deviation from unit magnitude is 1.04D-14 for   4493.
 Iteration    1 A*A^-1 deviation from orthogonality  is 2.47D-15 for   3459   1744.
 Iteration    1 A^-1*A deviation from unit magnitude is 1.02D-14 for   4493.
 Iteration    1 A^-1*A deviation from orthogonality  is 1.90D-15 for   4493   4483.
 Making orbital integer symmetry assigments:
   120 initial guesses have been made.
 Convergence on wavefunction:    0.000001000000000
 Davidson Disk Diagonalization:  ConvIn= 1.00D-06 SkipCon=T Conv= 1.00D-06.
 Max sub-space:   480 roots to seek:   120 dimension of matrix:       137360
 Iteration     1 Dimension   120 NMult     0 NNew    120
 CISAX will form   120 AO SS matrices at one time.
 NMat=   120 NSing=   120 JSym2X= 0.
 FoFJK:  IHMeth= 1 ICntrl=       0 DoSepK=T KAlg= 0 I1Cent=   0 FoldK=F
 IRaf=         1 NMat= 240 IRICut=       1 DoRegI=T DoRafI=F ISym2E= 0.
 New state      3 was old state     14
 New state      5 was old state      7
 New state      6 was old state      3
 New state      7 was old state      9
 New state      8 was old state     38
 New state      9 was old state     10
 New state     10 was old state     22
 New state     11 was old state      5
 New state     12 was old state    115
 New state     13 was old state      6
 New state     14 was old state     18
 New state     15 was old state     43
 New state     16 was old state     30
 New state     17 was old state     12
 New state     18 was old state     13
 New state     19 was old state     11
 New state     20 was old state     19
 New state     21 was old state     15
 New state     22 was old state     37
 New state     23 was old state     17
 New state     24 was old state     99
 New state     25 was old state     23
 New state     26 was old state     25
 New state     27 was old state     21
 New state     28 was old state     55
 New state     29 was old state     31
 New state     30 was old state     16
 Excitation Energies [eV] at current iteration:
 Root      1 :     3.579991375084539
 Root      2 :     4.476169513046319
 Root      3 :     5.206378134493812
 Root      4 :     5.397412211352657
 Root      5 :     5.492709814100031
 Root      6 :     5.519765760415633
 Root      7 :     5.738601607067526
 Root      8 :     5.811837082691803
 Root      9 :     5.944745802469278
 Root     10 :     5.976057939106664
 Root     11 :     6.024644574471536
 Root     12 :     6.210046010111402
 Root     13 :     6.347418649534626
 Root     14 :     6.383567410284773
 Root     15 :     6.418653077828495
 Root     16 :     6.605631255688975
 Root     17 :     6.653952063133625
 Root     18 :     6.681204677299211
 Root     19 :     6.717078342445006
 Root     20 :     6.822340140233681
 Root     21 :     6.879306653663303
 Root     22 :     6.891235875518865
 Root     23 :     7.015636778588556
 Root     24 :     7.116851026726015
 Root     25 :     7.173151454660320
 Root     26 :     7.209114565147893
 Root     27 :     7.240070250763073
 Root     28 :     7.323809426998213
 Root     29 :     7.396159123231604
 Root     30 :     7.418411362317030
 Root     31 :     7.486696906640517
 Root     32 :     7.561451007679457
 Root     33 :     7.595644972562011
 Root     34 :     7.611301324737672
 Root     35 :     7.646406501642519
 Root     36 :     7.697476836087483
 Root     37 :     7.733883165212132
 Root     38 :     7.759786786184566
 Root     39 :     7.770059334411775
 Root     40 :     7.779080410050322
 Root     41 :     7.823700493316133
 Root     42 :     7.844071405362581
 Root     43 :     7.851628589834825
 Root     44 :     7.887576410869038
 Root     45 :     7.890980694150418
 Root     46 :     7.917513160655213
 Root     47 :     8.000047446735746
 Root     48 :     8.020537767165068
 Root     49 :     8.029970567454773
 Root     50 :     8.070622453758466
 Root     51 :     8.106874906231814
 Root     52 :     8.138762654970771
 Root     53 :     8.181594594474621
 Root     54 :     8.234672215305292
 Root     55 :     8.241911311460496
 Root     56 :     8.257322948486113
 Root     57 :     8.334819835671658
 Root     58 :     8.367758861772346
 Root     59 :     8.396631842493242
 Root     60 :     8.407874945552248
 Root     61 :     8.431222337129672
 Root     62 :     8.453254280391119
 Root     63 :     8.481416086607741
 Root     64 :     8.532063026386629
 Root     65 :     8.543325101094078
 Root     66 :     8.571730228519238
 Root     67 :     8.602038775228634
 Root     68 :     8.616427159036578
 Root     69 :     8.667100103490361
 Root     70 :     8.685366805046026
 Root     71 :     8.717389591454896
 Root     72 :     8.727161420103036
 Root     73 :     8.759798126653106
 Root     74 :     8.772933039294294
 Root     75 :     8.791711995898446
 Root     76 :     8.802734425095217
 Root     77 :     8.826546799618786
 Root     78 :     8.838048781953763
 Root     79 :     8.877047094433426
 Root     80 :     8.885420869651137
 Root     81 :     8.899265153462759
 Root     82 :     8.930505404765309
 Root     83 :     8.941679740439215
 Root     84 :     8.947378872525576
 Root     85 :     8.961159420070684
 Root     86 :     8.996811707422797
 Root     87 :     9.014004519278943
 Root     88 :     9.042204569971672
 Root     89 :     9.074311875633958
 Root     90 :     9.085668565725149
 Root     91 :     9.093590701342427
 Root     92 :     9.100428825868448
 Root     93 :     9.142819351624892
 Root     94 :     9.162926720413498
 Root     95 :     9.190694727302260
 Root     96 :     9.220153818102997
 Root     97 :     9.247818744520995
 Root     98 :     9.263090330943085
 Root     99 :     9.279618925139255
 Root    100 :     9.298183867365131
 Root    101 :     9.328562590402537
 Root    102 :     9.367091063895344
 Root    103 :     9.410587642831757
 Root    104 :     9.424539635242930
 Root    105 :     9.469934376398541
 Root    106 :     9.477255840057261
 Root    107 :     9.499489091795871
 Root    108 :     9.514369601421681
 Root    109 :     9.521491619655713
 Root    110 :     9.547641411520047
 Root    111 :     9.598143211433147
 Root    112 :     9.641455416316539
 Root    113 :     9.657036648926237
 Root    114 :     9.701942658762338
 Root    115 :     9.713847471234400
 Root    116 :     9.732999900748059
 Root    117 :     9.828772475242761
 Root    118 :     9.858017414164395
 Root    119 :     9.897040398885258
 Root    120 :     9.936420564615579
 Iteration     2 Dimension   180 NMult   120 NNew     60
 CISAX will form    60 AO SS matrices at one time.
 NMat=    60 NSing=    60 JSym2X= 0.
 Root      1 not converged, maximum delta is    0.038678946970515
 Root      2 not converged, maximum delta is    0.033286702297277
 Root      3 not converged, maximum delta is    0.394411190077139
 Root      4 not converged, maximum delta is    0.386165604379376
 Root      5 not converged, maximum delta is    0.165027927494144
 Root      6 not converged, maximum delta is    0.321648442631238
 New state      7 was old state      9
 Root      7 not converged, maximum delta is    0.164949362822693
 Root      8 not converged, maximum delta is    0.266369495020450
 New state      9 was old state     12
 Root      9 not converged, maximum delta is    0.289489794647352
 Root     10 not converged, maximum delta is    0.242455339226197
 New state     11 was old state      7
 Root     11 not converged, maximum delta is    0.231885177664446
 New state     12 was old state     15
 Root     12 not converged, maximum delta is    0.282334914449180
 New state     13 was old state     11
 Root     13 not converged, maximum delta is    0.107629861113292
 Root     14 not converged, maximum delta is    0.176605686255728
 New state     15 was old state     13
 Root     15 not converged, maximum delta is    0.087526635157690
 New state     16 was old state     19
 Root     16 not converged, maximum delta is    0.293103626869872
 New state     17 was old state     16
 Root     17 not converged, maximum delta is    0.271985601786844
 New state     18 was old state     28
 Root     18 not converged, maximum delta is    0.354043943693179
 New state     19 was old state     24
 Root     19 not converged, maximum delta is    0.301064951883370
 New state     20 was old state     17
 Root     20 not converged, maximum delta is    0.206038048447688
 New state     21 was old state     18
 Root     21 not converged, maximum delta is    0.408733421038684
 New state     22 was old state     21
 Root     22 not converged, maximum delta is    0.192899927995294
 New state     23 was old state     22
 Root     23 not converged, maximum delta is    0.261309522307978
 New state     24 was old state     23
 Root     24 not converged, maximum delta is    0.139269136339207
 New state     25 was old state     20
 Root     25 not converged, maximum delta is    0.206157365989255
 New state     26 was old state     25
 Root     26 not converged, maximum delta is    0.163416412373658
 Root     27 not converged, maximum delta is    0.195557533709158
 New state     28 was old state     26
 Root     28 not converged, maximum delta is    0.172997563484661
 Root     29 not converged, maximum delta is    0.191741056430963
 Root     30 not converged, maximum delta is    0.117249327734040
 Excitation Energies [eV] at current iteration:
 Root      1 :     3.039025688862953   Change is   -0.540965686221586
 Root      2 :     4.003349299470036   Change is   -0.472820213576283
 Root      3 :     4.800431888194455   Change is   -0.405946246299358
 Root      4 :     4.813332687835704   Change is   -0.584079523516953
 Root      5 :     5.127120770260063   Change is   -0.365589043839968
 Root      6 :     5.169872127432945   Change is   -0.349893632982688
 Root      7 :     5.265783921357795   Change is   -0.678961881111483
 Root      8 :     5.458678073955147   Change is   -0.353159008736657
 Root      9 :     5.477822420101266   Change is   -0.732223590010135
 Root     10 :     5.541281181471481   Change is   -0.434776757635183
 Root     11 :     5.626247538863690   Change is   -0.112354068203836
 Root     12 :     5.681374105657770   Change is   -0.737278972170725
 Root     13 :     5.791846453686825   Change is   -0.232798120784712
 Root     14 :     5.813342627657143   Change is   -0.570224782627630
 Root     15 :     6.061918823594474   Change is   -0.285499825940152
 Root     16 :     6.157569791503489   Change is   -0.559508550941518
 Root     17 :     6.288397681826586   Change is   -0.317233573862389
 Root     18 :     6.406883270204615   Change is   -0.916926156793599
 Root     19 :     6.430714631164674   Change is   -0.686136395561340
 Root     20 :     6.452025580459314   Change is   -0.201926482674311
 Root     21 :     6.495773333100015   Change is   -0.185431344199196
 Root     22 :     6.588059543602417   Change is   -0.291247110060886
 Root     23 :     6.644917945180763   Change is   -0.246317930338103
 Root     24 :     6.705158566465701   Change is   -0.310478212122856
 Root     25 :     6.736440763511073   Change is   -0.085899376722608
 Root     26 :     6.904748715218037   Change is   -0.268402739442283
 Root     27 :     6.975812782452151   Change is   -0.264257468310922
 Root     28 :     7.015339252995136   Change is   -0.193775312152756
 Root     29 :     7.049740775190434   Change is   -0.346418348041170
 Root     30 :     7.147513745038292   Change is   -0.270897617278737
 Iteration     3 Dimension   240 NMult   180 NNew     60
 CISAX will form    60 AO SS matrices at one time.
 NMat=    60 NSing=    60 JSym2X= 0.
 Root      1 not converged, maximum delta is    0.003582045197166
 Root      2 not converged, maximum delta is    0.011806592197261
 Root      3 not converged, maximum delta is    0.203228715918131
 Root      4 not converged, maximum delta is    0.221707683926233
 Root      5 not converged, maximum delta is    0.051659243927834
 Root      6 not converged, maximum delta is    0.066492980378941
 Root      7 not converged, maximum delta is    0.041349986747948
 New state      8 was old state      9
 Root      8 not converged, maximum delta is    0.306845919891169
 New state      9 was old state      8
 Root      9 not converged, maximum delta is    0.293070266251552
 Root     10 not converged, maximum delta is    0.045534629807781
 Root     11 not converged, maximum delta is    0.117079930851695
 Root     12 not converged, maximum delta is    0.091202808957320
 New state     13 was old state     14
 Root     13 not converged, maximum delta is    0.190661492700231
 New state     14 was old state     13
 Root     14 not converged, maximum delta is    0.106776579512047
 Root     15 not converged, maximum delta is    0.013232751659071
 Root     16 not converged, maximum delta is    0.021070938074300
 Root     17 not converged, maximum delta is    0.025356947119900
 Root     18 not converged, maximum delta is    0.164919210556118
 Root     19 not converged, maximum delta is    0.116395785085732
 Root     20 not converged, maximum delta is    0.075114673745201
 Root     21 not converged, maximum delta is    0.091834837275901
 Root     22 not converged, maximum delta is    0.063357295311787
 Root     23 not converged, maximum delta is    0.063822715585850
 Root     24 not converged, maximum delta is    0.069337999677413
 Root     25 not converged, maximum delta is    0.094849812002522
 New state     26 was old state     30
 Root     26 not converged, maximum delta is    0.206045782460159
 New state     27 was old state     26
 Root     27 not converged, maximum delta is    0.121580843408513
 New state     28 was old state     27
 Root     28 not converged, maximum delta is    0.091655872601268
 New state     29 was old state     28
 Root     29 not converged, maximum delta is    0.235136472442083
 New state     30 was old state     29
 Root     30 not converged, maximum delta is    0.287042311920682
 Excitation Energies [eV] at current iteration:
 Root      1 :     3.012544108555457   Change is   -0.026481580307496
 Root      2 :     3.976385259288606   Change is   -0.026964040181430
 Root      3 :     4.771617251347100   Change is   -0.028814636847355
 Root      4 :     4.791874231400501   Change is   -0.021458456435203
 Root      5 :     5.108909081107392   Change is   -0.018211689152672
 Root      6 :     5.140657932159499   Change is   -0.029214195273446
 Root      7 :     5.221430467513797   Change is   -0.044353453843998
 Root      8 :     5.371142476476034   Change is   -0.106679943625233
 Root      9 :     5.451375334864055   Change is   -0.007302739091091
 Root     10 :     5.523479362045889   Change is   -0.017801819425592
 Root     11 :     5.615451041442873   Change is   -0.010796497420816
 Root     12 :     5.656931050086903   Change is   -0.024443055570868
 Root     13 :     5.776006455064522   Change is   -0.037336172592622
 Root     14 :     5.782308920375272   Change is   -0.009537533311552
 Root     15 :     6.041847184723235   Change is   -0.020071638871239
 Root     16 :     6.108578576303972   Change is   -0.048991215199517
 Root     17 :     6.255122405632832   Change is   -0.033275276193754
 Root     18 :     6.324809551394969   Change is   -0.082073718809645
 Root     19 :     6.389159758389414   Change is   -0.041554872775260
 Root     20 :     6.426642190634507   Change is   -0.025383389824807
 Root     21 :     6.470033647040393   Change is   -0.025739686059623
 Root     22 :     6.559123219139228   Change is   -0.028936324463188
 Root     23 :     6.610852693887989   Change is   -0.034065251292773
 Root     24 :     6.673563784017158   Change is   -0.031594782448542
 Root     25 :     6.695227201093304   Change is   -0.041213562417769
 Root     26 :     6.793498761160388   Change is   -0.354014983877905
 Root     27 :     6.853827600522294   Change is   -0.050921114695744
 Root     28 :     6.945681010208106   Change is   -0.030131772244045
 Root     29 :     6.967437895165826   Change is   -0.047901357829310
 Root     30 :     6.991652457423777   Change is   -0.058088317766657
 Iteration     4 Dimension   300 NMult   240 NNew     60
 CISAX will form    60 AO SS matrices at one time.
 NMat=    60 NSing=    60 JSym2X= 0.
 Root      1 not converged, maximum delta is    0.000926572608098
 Root      2 not converged, maximum delta is    0.001798870753468
 Root      3 not converged, maximum delta is    0.014695619514487
 Root      4 not converged, maximum delta is    0.016128876391128
 Root      5 not converged, maximum delta is    0.005176719705880
 Root      6 not converged, maximum delta is    0.002627704643271
 Root      7 not converged, maximum delta is    0.003728373129465
 Root      8 not converged, maximum delta is    0.007853257422865
 Root      9 not converged, maximum delta is    0.004854810263895
 Root     10 not converged, maximum delta is    0.002447828544245
 Root     11 not converged, maximum delta is    0.012672502289707
 Root     12 not converged, maximum delta is    0.010673114427842
 Root     13 not converged, maximum delta is    0.071882541482160
 Root     14 not converged, maximum delta is    0.040031127562392
 Root     15 not converged, maximum delta is    0.003294099754248
 Root     16 not converged, maximum delta is    0.008769856827892
 Root     17 not converged, maximum delta is    0.009420340902707
 Root     18 not converged, maximum delta is    0.007565125078746
 Root     19 not converged, maximum delta is    0.015173735229791
 Root     20 not converged, maximum delta is    0.012432001008510
 Root     21 not converged, maximum delta is    0.021537136473234
 Root     22 not converged, maximum delta is    0.015839182319706
 Root     23 not converged, maximum delta is    0.007442826550604
 Root     24 not converged, maximum delta is    0.214838536986231
 Root     25 not converged, maximum delta is    0.329083516421161
 New state     26 was old state     29
 Root     26 not converged, maximum delta is    0.280050144383781
 New state     27 was old state     26
 Root     27 not converged, maximum delta is    0.178919314092838
 New state     28 was old state     27
 Root     28 not converged, maximum delta is    0.207715964859649
 New state     29 was old state     28
 Root     29 not converged, maximum delta is    0.168611859446137
 Root     30 not converged, maximum delta is    0.314170316282268
 Excitation Energies [eV] at current iteration:
 Root      1 :     3.011476086745250   Change is   -0.001068021810207
 Root      2 :     3.974557170225680   Change is   -0.001828089062926
 Root      3 :     4.768658598147319   Change is   -0.002958653199781
 Root      4 :     4.790718409457091   Change is   -0.001155821943409
 Root      5 :     5.106967966850231   Change is   -0.001941114257161
 Root      6 :     5.138477475873787   Change is   -0.002180456285712
 Root      7 :     5.218147066024931   Change is   -0.003283401488867
 Root      8 :     5.362854304265159   Change is   -0.008288172210874
 Root      9 :     5.450205348090162   Change is   -0.001169986773894
 Root     10 :     5.522137525554741   Change is   -0.001341836491149
 Root     11 :     5.614282418767258   Change is   -0.001168622675615
 Root     12 :     5.654986310447153   Change is   -0.001944739639749
 Root     13 :     5.770305760868601   Change is   -0.005700694195920
 Root     14 :     5.781514414701212   Change is   -0.000794505674061
 Root     15 :     6.040645025726359   Change is   -0.001202158996875
 Root     16 :     6.100951568816536   Change is   -0.007627007487436
 Root     17 :     6.247422064240710   Change is   -0.007700341392122
 Root     18 :     6.315240389196794   Change is   -0.009569162198175
 Root     19 :     6.383269025967833   Change is   -0.005890732421581
 Root     20 :     6.424598057777711   Change is   -0.002044132856796
 Root     21 :     6.465418968897140   Change is   -0.004614678143252
 Root     22 :     6.556554341640831   Change is   -0.002568877498397
 Root     23 :     6.607825330744579   Change is   -0.003027363143410
 Root     24 :     6.621893733873762   Change is   -0.051670050143397
 Root     25 :     6.665255602253834   Change is   -0.029971598839471
 Root     26 :     6.688159986903242   Change is   -0.279277908262584
 Root     27 :     6.704764479346673   Change is   -0.088734281813715
 Root     28 :     6.853378152933510   Change is   -0.000449447588784
 Root     29 :     6.924291682987706   Change is   -0.021389327220400
 Root     30 :     6.956796601654149   Change is   -0.034855855769628
 Iteration     5 Dimension   360 NMult   300 NNew     60
 CISAX will form    60 AO SS matrices at one time.
 NMat=    60 NSing=    60 JSym2X= 0.
 Root      1 not converged, maximum delta is    0.000165059110301
 Root      2 not converged, maximum delta is    0.000242787332806
 Root      3 not converged, maximum delta is    0.000694181921469
 Root      4 not converged, maximum delta is    0.000765796530325
 Root      5 not converged, maximum delta is    0.001508142715553
 Root      6 not converged, maximum delta is    0.000760854971046
 Root      7 not converged, maximum delta is    0.000693996512617
 Root      8 not converged, maximum delta is    0.004487705187027
 Root      9 not converged, maximum delta is    0.001220715461431
 Root     10 not converged, maximum delta is    0.000821801897382
 Root     11 not converged, maximum delta is    0.001130240930947
 Root     12 not converged, maximum delta is    0.001030540487500
 Root     13 not converged, maximum delta is    0.003654336923873
 Root     14 not converged, maximum delta is    0.002048064248884
 Root     15 not converged, maximum delta is    0.000615243501515
 Root     16 not converged, maximum delta is    0.001992522423422
 Root     17 not converged, maximum delta is    0.003984350081343
 Root     18 not converged, maximum delta is    0.001271368701681
 Root     19 not converged, maximum delta is    0.002891977353041
 Root     20 not converged, maximum delta is    0.002289622416592
 Root     21 not converged, maximum delta is    0.003417525292932
 Root     22 not converged, maximum delta is    0.012189115024815
 New state     23 was old state     24
 Root     23 not converged, maximum delta is    0.052458634684174
 New state     24 was old state     23
 Root     24 not converged, maximum delta is    0.013581142229323
 Root     25 not converged, maximum delta is    0.044819643421064
 Root     26 not converged, maximum delta is    0.053864451755799
 Root     27 not converged, maximum delta is    0.038380169520795
 Root     28 not converged, maximum delta is    0.179380194716597
 Root     29 not converged, maximum delta is    0.238983304841149
 Root     30 not converged, maximum delta is    0.157338625569214
 Excitation Energies [eV] at current iteration:
 Root      1 :     3.011435247302468   Change is   -0.000040839442782
 Root      2 :     3.974486391743620   Change is   -0.000070778482060
 Root      3 :     4.768508917600808   Change is   -0.000149680546511
 Root      4 :     4.790670569077111   Change is   -0.000047840379981
 Root      5 :     5.106758384245022   Change is   -0.000209582605209
 Root      6 :     5.138329126559229   Change is   -0.000148349314558
 Root      7 :     5.217942997782982   Change is   -0.000204068241948
 Root      8 :     5.361879862528994   Change is   -0.000974441736165
 Root      9 :     5.450097323179227   Change is   -0.000108024910935
 Root     10 :     5.522051706516036   Change is   -0.000085819038704
 Root     11 :     5.614177517871055   Change is   -0.000104900896203
 Root     12 :     5.654817347149807   Change is   -0.000168963297346
 Root     13 :     5.769812449667275   Change is   -0.000493311201326
 Root     14 :     5.781463958527863   Change is   -0.000050456173349
 Root     15 :     6.040541595965712   Change is   -0.000103429760647
 Root     16 :     6.100027215469662   Change is   -0.000924353346874
 Root     17 :     6.246318391476120   Change is   -0.001103672764589
 Root     18 :     6.314513778610841   Change is   -0.000726610585954
 Root     19 :     6.382325135842437   Change is   -0.000943890125396
 Root     20 :     6.424373040996406   Change is   -0.000225016781305
 Root     21 :     6.464688644803746   Change is   -0.000730324093395
 Root     22 :     6.556080142192622   Change is   -0.000474199448210
 Root     23 :     6.597753484161420   Change is   -0.024140249712342
 Root     24 :     6.607385458582984   Change is   -0.000439872161596
 Root     25 :     6.655310968480319   Change is   -0.009944633773514
 Root     26 :     6.676852199172350   Change is   -0.011307787730892
 Root     27 :     6.698421187028881   Change is   -0.006343292317791
 Root     28 :     6.791369335719470   Change is   -0.062008817214039
 Root     29 :     6.884356680518740   Change is   -0.039935002468965
 Root     30 :     6.937662718368982   Change is   -0.019133883285167
 Iteration     6 Dimension   420 NMult   360 NNew     60
 CISAX will form    60 AO SS matrices at one time.
 NMat=    60 NSing=    60 JSym2X= 0.
 Root      1 not converged, maximum delta is    0.000019692856044
 Root      2 not converged, maximum delta is    0.000049694305712
 Root      3 not converged, maximum delta is    0.000100127922613
 Root      4 not converged, maximum delta is    0.000037108858217
 Root      5 not converged, maximum delta is    0.000345364871187
 Root      6 not converged, maximum delta is    0.000187946149886
 Root      7 not converged, maximum delta is    0.000104843114735
 Root      8 not converged, maximum delta is    0.000982471394443
 Root      9 not converged, maximum delta is    0.000212153813653
 Root     10 not converged, maximum delta is    0.000141465053397
 Root     11 not converged, maximum delta is    0.000169675901413
 Root     12 not converged, maximum delta is    0.000195626574941
 Root     13 not converged, maximum delta is    0.000272538657136
 Root     14 not converged, maximum delta is    0.000127780455760
 Root     15 not converged, maximum delta is    0.000092711426198
 Root     16 not converged, maximum delta is    0.000343995899815
 Root     17 not converged, maximum delta is    0.000908633712417
 Root     18 not converged, maximum delta is    0.000454160739475
 Root     19 not converged, maximum delta is    0.000990436932176
 Root     20 not converged, maximum delta is    0.000292027479166
 Root     21 not converged, maximum delta is    0.000519559889433
 Root     22 not converged, maximum delta is    0.002228873126609
 Root     23 not converged, maximum delta is    0.004686299429512
 Root     24 not converged, maximum delta is    0.001227392242980
 Root     25 not converged, maximum delta is    0.003753157675576
 Root     26 not converged, maximum delta is    0.006814749024176
 Root     27 not converged, maximum delta is    0.006774755704679
 Root     28 not converged, maximum delta is    0.011598757206147
 Root     29 not converged, maximum delta is    0.018181309247953
 Root     30 not converged, maximum delta is    0.244012099240928
 Excitation Energies [eV] at current iteration:
 Root      1 :     3.011433960295866   Change is   -0.000001287006602
 Root      2 :     3.974483536078247   Change is   -0.000002855665373
 Root      3 :     4.768501185412910   Change is   -0.000007732187899
 Root      4 :     4.790668508182680   Change is   -0.000002060894431
 Root      5 :     5.106743985862789   Change is   -0.000014398382232
 Root      6 :     5.138319077250133   Change is   -0.000010049309097
 Root      7 :     5.217933092841743   Change is   -0.000009904941240
 Root      8 :     5.361795560073867   Change is   -0.000084302455127
 Root      9 :     5.450089156251612   Change is   -0.000008166927615
 Root     10 :     5.522046574314795   Change is   -0.000005132201241
 Root     11 :     5.614170616624391   Change is   -0.000006901246664
 Root     12 :     5.654806493127043   Change is   -0.000010854022764
 Root     13 :     5.769780870120828   Change is   -0.000031579546447
 Root     14 :     5.781461024250486   Change is   -0.000002934277377
 Root     15 :     6.040535207584812   Change is   -0.000006388380901
 Root     16 :     6.099969134814003   Change is   -0.000058080655659
 Root     17 :     6.246224619975449   Change is   -0.000093771500671
 Root     18 :     6.314455862827510   Change is   -0.000057915783330
 Root     19 :     6.382203443720378   Change is   -0.000121692122059
 Root     20 :     6.424350469021067   Change is   -0.000022571975339
 Root     21 :     6.464606848688009   Change is   -0.000081796115736
 Root     22 :     6.556019604121100   Change is   -0.000060538071522
 Root     23 :     6.595042631444987   Change is   -0.002710852716433
 Root     24 :     6.607325583205157   Change is   -0.000059875377826
 Root     25 :     6.654210473052019   Change is   -0.001100495428301
 Root     26 :     6.675399562710925   Change is   -0.001452636461425
 Root     27 :     6.697714186997585   Change is   -0.000707000031296
 Root     28 :     6.782634282281582   Change is   -0.008735053437888
 Root     29 :     6.881727375746574   Change is   -0.002629304772167
 Root     30 :     6.917035903917085   Change is   -0.020626814451897
 Iteration     7 Dimension   480 NMult   420 NNew     60
 CISAX will form    60 AO SS matrices at one time.
 NMat=    60 NSing=    60 JSym2X= 0.
 Root      1 not converged, maximum delta is    0.000003757756562
 Root      2 not converged, maximum delta is    0.000005588546492
 Root      3 not converged, maximum delta is    0.000026096845387
 Root      4 not converged, maximum delta is    0.000008745056389
 Root      5 not converged, maximum delta is    0.000094243189794
 Root      6 not converged, maximum delta is    0.000050765932907
 Root      7 not converged, maximum delta is    0.000022904672280
 Root      8 not converged, maximum delta is    0.000222818977445
 Root      9 not converged, maximum delta is    0.000026688290121
 Root     10 not converged, maximum delta is    0.000021299387748
 Root     11 not converged, maximum delta is    0.000036100398541
 Root     12 not converged, maximum delta is    0.000052070457067
 Root     13 not converged, maximum delta is    0.000059798388238
 Root     14 not converged, maximum delta is    0.000018384065922
 Root     15 not converged, maximum delta is    0.000020467284359
 Root     16 not converged, maximum delta is    0.000128254354818
 Root     17 not converged, maximum delta is    0.000157481120923
 Root     18 not converged, maximum delta is    0.000206182460045
 Root     19 not converged, maximum delta is    0.000299635174582
 Root     20 not converged, maximum delta is    0.000123675672867
 Root     21 not converged, maximum delta is    0.000202050127990
 Root     22 not converged, maximum delta is    0.000224616965093
 Root     23 not converged, maximum delta is    0.001176833098269
 Root     24 not converged, maximum delta is    0.000144137783277
 Root     25 not converged, maximum delta is    0.000770325279405
 Root     26 not converged, maximum delta is    0.000938386672805
 Root     27 not converged, maximum delta is    0.000856954109733
 Root     28 not converged, maximum delta is    0.003364596058223
 Root     29 not converged, maximum delta is    0.002985697305611
 Root     30 not converged, maximum delta is    0.006160983165413
 Excitation Energies [eV] at current iteration:
 Root      1 :     3.011433921745527   Change is   -0.000000038550339
 Root      2 :     3.974483442085272   Change is   -0.000000093992976
 Root      3 :     4.768500783122062   Change is   -0.000000402290847
 Root      4 :     4.790668409295046   Change is   -0.000000098887634
 Root      5 :     5.106742775909529   Change is   -0.000001209953261
 Root      6 :     5.138318361215084   Change is   -0.000000716035049
 Root      7 :     5.217932559022413   Change is   -0.000000533819329
 Root      8 :     5.361788663531859   Change is   -0.000006896542008
 Root      9 :     5.450088629143250   Change is   -0.000000527108362
 Root     10 :     5.522046237068247   Change is   -0.000000337246548
 Root     11 :     5.614170133535206   Change is   -0.000000483089186
 Root     12 :     5.654805719015715   Change is   -0.000000774111328
 Root     13 :     5.769778959950675   Change is   -0.000001910170153
 Root     14 :     5.781460835805388   Change is   -0.000000188445098
 Root     15 :     6.040534824174589   Change is   -0.000000383410223
 Root     16 :     6.099965084830528   Change is   -0.000004049983475
 Root     17 :     6.246217882782925   Change is   -0.000006737192525
 Root     18 :     6.314449123041385   Change is   -0.000006739786126
 Root     19 :     6.382191536294174   Change is   -0.000011907426203
 Root     20 :     6.424348234332927   Change is   -0.000002234688139
 Root     21 :     6.464598575671401   Change is   -0.000008273016609
 Root     22 :     6.556013379353938   Change is   -0.000006224767162
 Root     23 :     6.594787140193789   Change is   -0.000255491251198
 Root     24 :     6.607319262610593   Change is   -0.000006320594564
 Root     25 :     6.654105744296563   Change is   -0.000104728755456
 Root     26 :     6.675243194170925   Change is   -0.000156368540000
 Root     27 :     6.697629675481227   Change is   -0.000084511516359
 Root     28 :     6.781629196853595   Change is   -0.001005085427987
 Root     29 :     6.881382289373211   Change is   -0.000345086373363
 Root     30 :     6.914591399020227   Change is   -0.002444504896858
 Davidson failed to converge within maximum sub-space dimensions.
  Restart with updated initial guess:
 Iteration     1 Dimension   120 NMult   480 NNew    120
 CISAX will form   120 AO SS matrices at one time.
[...]
 Alpha virt. eigenvalues --    0.17303   0.17461   0.17556   0.17726   0.17878
 Alpha virt. eigenvalues --    0.18067   0.18139   0.18422   0.18509   0.18767
 Alpha virt. eigenvalues --    0.18934   0.19120   0.19212   0.19454   0.19699
 Alpha virt. eigenvalues --    0.19999   0.20059   0.20351   0.20418   0.20614
 Alpha virt. eigenvalues --    0.20849   0.21203   0.21452   0.21547   0.21828
 Alpha virt. eigenvalues --    0.22033   0.22078   0.22419   0.22434   0.22541
 Alpha virt. eigenvalues --    0.22879   0.22979   0.23259   0.23526   0.23564
 Alpha virt. eigenvalues --    0.23643   0.24025   0.24104   0.24263   0.24509
 Alpha virt. eigenvalues --    0.24799   0.24948   0.25114   0.25626   0.25703
 Alpha virt. eigenvalues --    0.25783   0.26168   0.26240   0.26373   0.26563
 Alpha virt. eigenvalues --    0.26746   0.26887   0.26925   0.27164   0.27447
 Alpha virt. eigenvalues --    0.27554   0.27888   0.28096   0.28320   0.28612
 Alpha virt. eigenvalues --    0.29213   0.29391   0.29435   0.29543   0.29730
 Alpha virt. eigenvalues --    0.30118   0.30279   0.30451   0.30653   0.30964
 Alpha virt. eigenvalues --    0.31059   0.31373   0.31643   0.32160   0.32274
 Alpha virt. eigenvalues --    0.32470   0.32720   0.33121   0.33244   0.33405
 Alpha virt. eigenvalues --    0.33723   0.33928   0.34190   0.34330   0.34619
 Alpha virt. eigenvalues --    0.34715   0.34952   0.35338   0.35630   0.35738
 Alpha virt. eigenvalues --    0.35926   0.35989   0.36175   0.36181   0.36579
 Alpha virt. eigenvalues --    0.36667   0.36973   0.37180   0.37436   0.37683
 Alpha virt. eigenvalues --    0.37757   0.37996   0.38156   0.38354   0.38717
 Alpha virt. eigenvalues --    0.38980   0.39202   0.39744   0.39804   0.39877
 Alpha virt. eigenvalues --    0.40014   0.40301   0.40879   0.40946   0.41249
 Alpha virt. eigenvalues --    0.41693   0.41803   0.42153   0.42618   0.42786
 Alpha virt. eigenvalues --    0.43261   0.43453   0.43718   0.44300   0.44485
 Alpha virt. eigenvalues --    0.44635   0.44852   0.45225   0.45304   0.45655
 Alpha virt. eigenvalues --    0.45903   0.46171   0.46745   0.47428   0.47661
 Alpha virt. eigenvalues --    0.48284   0.48401   0.48552   0.49245   0.49317
 Alpha virt. eigenvalues --    0.49849   0.50382   0.50977   0.51596   0.51924
 Alpha virt. eigenvalues --    0.52450   0.52989   0.53638   0.53687   0.54534
 Alpha virt. eigenvalues --    0.55079   0.56185   0.56734   0.56853   0.57062
 Alpha virt. eigenvalues --    0.57952   0.58594   0.58890   0.60190   0.60714
 Alpha virt. eigenvalues --    0.60973   0.61165   0.61678   0.62057   0.63187
 Alpha virt. eigenvalues --    0.63471   0.63916   0.64228   0.64510   0.65040
 Alpha virt. eigenvalues --    0.65450   0.65520   0.65996   0.66418   0.66815
 Alpha virt. eigenvalues --    0.67816   0.68452   0.69061   0.69419   0.69600
 Alpha virt. eigenvalues --    0.69871   0.70076   0.70369   0.71020   0.71272
 Alpha virt. eigenvalues --    0.71545   0.72074   0.72160   0.72968   0.73166
 Alpha virt. eigenvalues --    0.73342   0.73494   0.73546   0.73903   0.73981
 Alpha virt. eigenvalues --    0.74526   0.74851   0.75133   0.75299   0.75752
 Alpha virt. eigenvalues --    0.76031   0.76211   0.76544   0.76815   0.77167
 Alpha virt. eigenvalues --    0.77390   0.77947   0.78064   0.78543   0.78710
 Alpha virt. eigenvalues --    0.78831   0.79230   0.79508   0.79703   0.79831
 Alpha virt. eigenvalues --    0.80195   0.80367   0.80501   0.80630   0.81261
 Alpha virt. eigenvalues --    0.81492   0.81702   0.82059   0.82242   0.82904
 Alpha virt. eigenvalues --    0.83209   0.83359   0.83780   0.84135   0.84337
 Alpha virt. eigenvalues --    0.84436   0.84521   0.85088   0.85315   0.85625
 Alpha virt. eigenvalues --    0.85766   0.86128   0.86527   0.87000   0.87171
 Alpha virt. eigenvalues --    0.87642   0.87808   0.88308   0.88443   0.88965
 Alpha virt. eigenvalues --    0.89676   0.90062   0.91128   0.91540   0.91820
 Alpha virt. eigenvalues --    0.92789   0.93451   0.94015   0.94252   0.94895
 Alpha virt. eigenvalues --    0.96065   0.96696   0.97037   0.97690   0.98764
 Alpha virt. eigenvalues --    0.99105   0.99527   0.99995   1.00808   1.00960
 Alpha virt. eigenvalues --    1.01391   1.02176   1.02393   1.02670   1.03057
 Alpha virt. eigenvalues --    1.03238   1.03845   1.04065   1.05204   1.05482
 Alpha virt. eigenvalues --    1.06764   1.06968   1.07635   1.08098   1.09224
 Alpha virt. eigenvalues --    1.09319   1.09599   1.09813   1.09983   1.10695
 Alpha virt. eigenvalues --    1.11289   1.11381   1.11764   1.11983   1.12363
 Alpha virt. eigenvalues --    1.12756   1.13063   1.13628   1.14001   1.14009
 Alpha virt. eigenvalues --    1.14223   1.14529   1.15704   1.16110   1.17811
 Alpha virt. eigenvalues --    1.18143   1.19127   1.19868   1.20274   1.20639
 Alpha virt. eigenvalues --    1.21482   1.21966   1.22435   1.23642   1.23942
 Alpha virt. eigenvalues --    1.24168   1.25731   1.26672   1.27502   1.28262
 Alpha virt. eigenvalues --    1.28597   1.28844   1.28981   1.30087   1.31008
 Alpha virt. eigenvalues --    1.31836   1.32403   1.33513   1.35850   1.36412
 Alpha virt. eigenvalues --    1.36673   1.37089   1.38054   1.38341   1.38497
 Alpha virt. eigenvalues --    1.39875   1.41035   1.42016   1.43138   1.43250
 Alpha virt. eigenvalues --    1.44529   1.46049   1.46144   1.46168   1.47030
 Alpha virt. eigenvalues --    1.47382   1.47614   1.49060   1.49786   1.52599
 Alpha virt. eigenvalues --    1.52708   1.54343   1.54401   1.54899   1.57358
 Alpha virt. eigenvalues --    1.57428   1.58221   1.58726   1.59065   1.59092
 Alpha virt. eigenvalues --    1.59241   1.60240   1.60442   1.60924   1.61271
 Alpha virt. eigenvalues --    1.61714   1.62059   1.63456   1.63754   1.64226
 Alpha virt. eigenvalues --    1.64784   1.65822   1.66001   1.66200   1.66457
 Alpha virt. eigenvalues --    1.67004   1.67355   1.67471   1.68032   1.68110
 Alpha virt. eigenvalues --    1.68439   1.68692   1.68911   1.69074   1.69370
 Alpha virt. eigenvalues --    1.69838   1.69977   1.70626   1.70930   1.71344
 Alpha virt. eigenvalues --    1.72038   1.72471   1.72741   1.72901   1.73639
 Alpha virt. eigenvalues --    1.73876   1.74017   1.74324   1.75586   1.76043
 Alpha virt. eigenvalues --    1.76461   1.76618   1.77713   1.78034   1.78220
 Alpha virt. eigenvalues --    1.78515   1.78960   1.79412   1.79996   1.80709
 Alpha virt. eigenvalues --    1.80851   1.81950   1.82052   1.82318   1.82599
 Alpha virt. eigenvalues --    1.83614   1.85212   1.85958   1.86541   1.86740
 Alpha virt. eigenvalues --    1.87345   1.87707   1.87906   1.88549   1.88854
 Alpha virt. eigenvalues --    1.89126   1.89762   1.90600   1.91312   1.91936
 Alpha virt. eigenvalues --    1.92819   1.93077   1.93881   1.94864   1.95086
 Alpha virt. eigenvalues --    1.95841   1.96656   1.97140   1.97709   1.98280
 Alpha virt. eigenvalues --    1.98685   1.99093   1.99964   2.00297   2.01035
 Alpha virt. eigenvalues --    2.01350   2.01974   2.02812   2.03793   2.03908
 Alpha virt. eigenvalues --    2.04462   2.05027   2.05388   2.06517   2.06879
 Alpha virt. eigenvalues --    2.07099   2.08026   2.08930   2.09001   2.09180
 Alpha virt. eigenvalues --    2.10542   2.10959   2.11052   2.11630   2.12363
 Alpha virt. eigenvalues --    2.12842   2.13502   2.14894   2.15694   2.16540
 Alpha virt. eigenvalues --    2.16940   2.17339   2.17582   2.18975   2.20018
 Alpha virt. eigenvalues --    2.20387   2.21555   2.21977   2.22960   2.23916
 Alpha virt. eigenvalues --    2.24973   2.26014   2.26201   2.26820   2.27567
 Alpha virt. eigenvalues --    2.28136   2.28584   2.29204   2.30224   2.30418
 Alpha virt. eigenvalues --    2.31630   2.32179   2.33377   2.34302   2.34966
 Alpha virt. eigenvalues --    2.35655   2.35948   2.36886   2.37663   2.38031
 Alpha virt. eigenvalues --    2.38150   2.40111   2.40625   2.42305   2.43357
 Alpha virt. eigenvalues --    2.44422   2.45637   2.45967   2.46315   2.47145
 Alpha virt. eigenvalues --    2.48126   2.49003   2.50273   2.50496   2.51157
 Alpha virt. eigenvalues --    2.53912   2.54837   2.55792   2.57097   2.57668
 Alpha virt. eigenvalues --    2.58019   2.58379   2.59455   2.60211   2.60972
 Alpha virt. eigenvalues --    2.61030   2.61396   2.61873   2.62448   2.63362
 Alpha virt. eigenvalues --    2.64733   2.64919   2.64947   2.65962   2.66738
 Alpha virt. eigenvalues --    2.67278   2.67529   2.68269   2.68774   2.69237
 Alpha virt. eigenvalues --    2.69942   2.70527   2.71423   2.71508   2.71993
 Alpha virt. eigenvalues --    2.72239   2.72837   2.73471   2.74336   2.74854
 Alpha virt. eigenvalues --    2.74930   2.75804   2.76227   2.76672   2.77289
 Alpha virt. eigenvalues --    2.77840   2.78741   2.79721   2.80021   2.80110
 Alpha virt. eigenvalues --    2.80695   2.81258   2.81630   2.82257   2.82708
 Alpha virt. eigenvalues --    2.83307   2.85344   2.85907   2.85940   2.86583
 Alpha virt. eigenvalues --    2.87000   2.87924   2.88392   2.89271   2.89948
 Alpha virt. eigenvalues --    2.90980   2.91466   2.91793   2.93021   2.93380
 Alpha virt. eigenvalues --    2.93579   2.94187   2.94724   2.94956   2.95840
 Alpha virt. eigenvalues --    2.96595   2.97377   2.97695   2.99196   2.99767
 Alpha virt. eigenvalues --    3.00077   3.00740   3.01194   3.01944   3.02766
 Alpha virt. eigenvalues --    3.03210   3.04307   3.04564   3.05414   3.05660
 Alpha virt. eigenvalues --    3.06713   3.07300   3.07536   3.08000   3.08717
 Alpha virt. eigenvalues --    3.08987   3.09734   3.10393   3.10742   3.12862
 Alpha virt. eigenvalues --    3.15581   3.16341   3.18335   3.19637   3.19917
 Alpha virt. eigenvalues --    3.20272   3.22505   3.23469   3.24153   3.25395
 Alpha virt. eigenvalues --    3.26943   3.27690   3.28924   3.29502   3.30201
 Alpha virt. eigenvalues --    3.31418   3.31738   3.33849   3.34871   3.35406
 Alpha virt. eigenvalues --    3.36558   3.38722   3.39857   3.41576   3.42499
 Alpha virt. eigenvalues --    3.42907   3.43617   3.43945   3.46065   3.46567
 Alpha virt. eigenvalues --    3.49066   3.49350   3.50407   3.52865   3.54734
 Alpha virt. eigenvalues --    3.55756   3.56327   3.60259   3.61649   3.67778
 Alpha virt. eigenvalues --    3.68086   3.69960   3.71125   3.74065   3.76438
 Alpha virt. eigenvalues --    3.79057   3.79637   3.81125   3.83429   3.83580
 Alpha virt. eigenvalues --    3.84590   3.88057   3.89221   3.90324   3.91620
 Alpha virt. eigenvalues --    3.92113   3.92868   3.93777   3.93871   3.94299
 Alpha virt. eigenvalues --    3.95022   3.95164   3.95255   3.96178   3.96829
 Alpha virt. eigenvalues --    3.97731   3.98465   4.06126   4.08404   4.09686
 Alpha virt. eigenvalues --    4.12491   4.15610   4.16730   4.19830   4.22636
 Alpha virt. eigenvalues --    4.28072   4.31328   4.32136   4.34979   4.35458
 Alpha virt. eigenvalues --    4.37104   4.38649   4.39414   4.39928   4.45910
 Alpha virt. eigenvalues --    4.46219   4.49283   4.58696   4.77627   4.94879
 Alpha virt. eigenvalues --    4.96137   4.96888   4.98121   4.99366   5.13175
 Alpha virt. eigenvalues --    5.17237   5.21694   5.23784   5.24175   5.44359
 Alpha virt. eigenvalues --    5.50982   5.53566   5.82358   6.07316   6.11616
 Alpha virt. eigenvalues --   23.70572  23.83219  23.83844  23.98241  23.98633
 Alpha virt. eigenvalues --   23.99010  24.00051  24.00456  24.00705  24.02074
 Alpha virt. eigenvalues --   24.06841  24.08359  24.08509  24.09649  24.10130
 Alpha virt. eigenvalues --   24.11114  24.11980  24.12222  24.12265  24.14737
 Alpha virt. eigenvalues --   24.15030  24.19819  24.24693  24.25228  24.25839
 Alpha virt. eigenvalues --   24.29616  24.30431  24.30945  35.78145  35.79293
 Alpha virt. eigenvalues --   50.03913  50.10693  50.16436
          Condensed to atoms (all electrons):
 Mulliken charges:
               1
     1  C   -0.031567
     2  C   -0.359593
     3  C   -0.105799
     4  C   -0.494490
     5  C   -0.097325
     6  C    0.429923
     7  O   -0.048079
     8  C    0.461824
     9  C    0.919197
    10  C    0.228734
    11  C   -0.102482
    12  C   -0.517444
    13  C   -0.385884
    14  C   -0.397816
    15  C   -0.061750
    16  C    0.311387
    17  C   -0.205849
    18  C   -0.089609
    19  C   -0.068497
    20  C   -0.491218
    21  C   -0.603005
    22  N   -0.089164
    23  C   -0.296984
    24  C   -0.429771
    25  N   -0.027830
    26  C   -0.051173
    27  C   -0.701775
    28  C   -0.676148
    29  C   -0.576657
    30  O   -0.183378
    31  O   -0.034637
    32  C    0.006624
    33  C   -0.610955
    34  H    0.265088
    35  H    0.152666
    36  H    0.276847
    37  H    0.219867
    38  H    0.246342
    39  H    0.235593
    40  H    0.258088
    41  H    0.153959
    42  H    0.196571
    43  H    0.197611
    44  H    0.191657
    45  H    0.187508
    46  H    0.212566
    47  H    0.159351
    48  H    0.144546
    49  H    0.169204
    50  H    0.388557
    51  H    0.193403
    52  H    0.190548
    53  H    0.180490
    54  H    0.168206
    55  H    0.169353
    56  H    0.192513
    57  H    0.191834
    58  H    0.194948
    59  H    0.195523
    60  H    0.191464
    61  H    0.172674
    62  H    0.163765
    63  H    0.166152
    64  H    0.354297
 Sum of Mulliken charges =   1.00000
 Mulliken charges with hydrogens summed into heavy atoms:
               1
     1  C   -0.031567
     2  C   -0.359593
     3  C    0.159289
     4  C   -0.341824
     5  C   -0.097325
     6  C    0.429923
     7  O   -0.048079
     8  C    0.461824
     9  C    0.919197
    10  C    0.228734
    11  C    0.174365
    12  C   -0.297577
    13  C   -0.139542
    14  C   -0.162223
    15  C   -0.061750
    16  C    0.311387
    17  C    0.052239
    18  C   -0.089609
    19  C   -0.068497
    20  C   -0.337258
    21  C   -0.017166
    22  N    0.265133
    23  C    0.103091
    24  C    0.043331
    25  N    0.360726
    26  C    0.332779
    27  C   -0.183726
    28  C   -0.096853
    29  C   -0.576657
    30  O   -0.183378
    31  O   -0.034637
    32  C    0.393610
    33  C   -0.108364
 Electronic spatial extent (au):  <R**2>=          84023.5620
 Charge=              1.0000 electrons
 Dipole moment (field-independent basis, Debye):
    X=              2.5356    Y=            -42.3130    Z=             -2.2831  Tot=             42.4503
 Quadrupole moment (field-independent basis, Debye-Ang):
   XX=           -135.9751   YY=            298.3299   ZZ=           -176.6172
   XY=            -23.0951   XZ=              7.8626   YZ=             19.2290
 Traceless Quadrupole moment (field-independent basis, Debye-Ang):
   XX=           -131.2209   YY=            303.0840   ZZ=           -171.8631
   XY=            -23.0951   XZ=              7.8626   YZ=             19.2290
 Octapole moment (field-independent basis, Debye-Ang**2):
  XXX=           -675.7871  YYY=          -1367.5921  ZZZ=             44.6564  XYY=           -165.7550
  XXY=           1205.5660  XXZ=            -16.9017  XZZ=           -206.1905  YZZ=           1569.7398
  YYZ=           -243.7023  XYZ=            -55.0046
 Hexadecapole moment (field-independent basis, Debye-Ang**3):
 XXXX=          -9353.5050 YYYY=         -11631.2592 ZZZZ=          -2959.6623 XXXY=           5759.5815
 XXXZ=          -1062.1254 YYYX=           7772.2646 YYYZ=           3272.1241 ZZZX=           -720.8914
 ZZZY=           -455.9635 XXYY=         -14004.9376 XXZZ=          -2021.1597 YYZZ=         -16385.2227
 XXYZ=            132.0283 YYXZ=            109.2281 ZZXY=           1793.6890
 N-N= 3.331900211995D+03 E-N=-9.944202429365D+03  KE= 1.413637746154D+03
 No NMR shielding tensors so no spin-rotation constants.
 Leave Link  601 at Sat May  2 16:12:30 2020, MaxMem=  6710886400 cpu:        10.6
 (Enter /opt/sys/apps/gaussian09/D.01/g09/l9999.exe)

 Test job not archived.
 1\1\GINC-S93P20\SP\RCAM-B3LYP TD-FC\6-311++G(d,p)\C28H31N2O3(1+)\SALVA
 TORE\02-May-2020\0\\#p CAM-B3LYP/6-311++G** nosym density=current geom
 =allcheck EmpiricalDispersion=GD3 SCRF=(CPCM, solvent=acetonitrile) IO
 P(10/74=10) TD=(NSTATES=30,ROOT=1,NONEQ) iop(3/119=0810000000) iop(3/1
 20=0810000000)\\R6G\\1,1\C,0,1.4843298195,-12.4679016588,-0.3670201519
 \C,0,0.0427789439,-12.4583001989,-0.4877253903\C,0,-0.6383072465,-11.2
 301855264,-0.6073483624\C,0,2.1536390485,-11.2751859886,-0.3792200697\
 C,0,1.492009155,-10.0200785528,-0.503099918\C,0,0.0771537535,-10.05152
 9219,-0.609936973\O,0,-0.6377323734,-8.9002440861,-0.7162633925\C,0,2.
 1480436848,-8.7776671293,-0.4974296274\C,0,3.6376662686,-8.7140027824,
 -0.4495822652\C,0,4.3683147648,-8.5444760864,0.7420383518\C,0,5.767201
 8045,-8.4806187469,0.6868111175\C,0,6.4370419937,-8.5839518437,-0.5268
 222135\C,0,5.7123897529,-8.7522168314,-1.7050749965\C,0,4.3217349349,-
 8.8164860568,-1.6636136533\C,0,1.3949565103,-7.5989681062,-0.628125958
 5\C,0,-0.0174738644,-7.6902950163,-0.7281194698\C,0,-0.8251981239,-6.5
 787290556,-0.8335459783\C,0,-0.2472983508,-5.2933903566,-0.8481427921\
 C,0,1.1898493375,-5.1588450748,-0.7478080879\C,0,1.9531950974,-6.28923
 37509,-0.6441892039\C,0,1.8201397836,-3.7915953089,-0.761293546\N,0,-1
 .0055254394,-4.182279522,-0.9696532924\C,0,-2.4672969678,-4.1437616636
 ,-0.9998979766\C,0,-3.1020032476,-4.2969534387,0.3853452313\N,0,-0.631
 2758795,-13.6264832177,-0.4815571347\C,0,-2.0824146978,-13.761318221,-
 0.5991562711\C,0,-2.4878826609,-15.2287540795,-0.5400605799\C,0,2.2188
 273834,-13.7747847945,-0.2299734027\C,0,3.6526750724,-8.4445978184,2.0
 493881991\O,0,2.4506763367,-8.5695917097,2.1811289717\O,0,4.481706878,
 -8.2022377962,3.0720897777\C,0,3.8842258188,-8.096875188,4.3962849452\
 C,0,5.01048189,-7.8610451865,5.3787379777\H,0,-1.7140942591,-11.183894
 4535,-0.6944478751\H,0,3.23293948,-11.2749851462,-0.2890690077\H,0,6.3
 241907876,-8.3519378404,1.6046383752\H,0,7.518917214,-8.5346853811,-0.
 5523592698\H,0,6.2250363409,-8.8338631382,-2.656250902\H,0,3.756872209
 7,-8.9444665119,-2.5793854641\H,0,-1.8936879639,-6.723037718,-0.897199
 6969\H,0,3.029408009,-6.1926616772,-0.5696950819\H,0,2.9038665802,-3.8
 667182854,-0.6730097183\H,0,1.5980590044,-3.2558716408,-1.6907366039\H
 ,0,1.4612835851,-3.1743753598,0.0698226336\H,0,-2.8289436206,-4.916848
 2485,-1.6825371604\H,0,-2.7458408021,-3.1846912867,-1.4384315625\H,0,-
 4.1911755743,-4.2642548081,0.3015195023\H,0,-2.8222735305,-5.246716601
 1,0.8463277211\H,0,-2.781186727,-3.4877115375,1.04556779\H,0,-0.104104
 3502,-14.4817156374,-0.3964830444\H,0,-2.4114409357,-13.3147533476,-1.
 5439640859\H,0,-2.5636107665,-13.203585683,0.2116102668\H,0,-3.5720094
 481,-15.3161345608,-0.6294328369\H,0,-2.0330271088,-15.7954460303,-1.3
 568774716\H,0,-2.1874102008,-15.681295904,0.4086533883\H,0,1.899698689
 8,-14.3223141814,0.6635340625\H,0,2.0477069723,-14.4249323083,-1.09485
 38965\H,0,3.2926715259,-13.6065172193,-0.1496835075\H,0,3.3423926731,-
 9.021841815,4.6035625199\H,0,3.1674846109,-7.2731877323,4.3841565246\H
 ,0,4.5994361064,-7.7767754993,6.3876371308\H,0,5.720084826,-8.69117957
 4,5.3637571118\H,0,5.5445230402,-6.9371539393,5.1459712077\H,0,-0.5387
 755485,-3.2906029213,-0.9192849135\\Version=ES64L-G09RevD.01\HF=-1419.
 3238024\RMSD=2.929e-09\Dipole=-1.8216255,-0.0486978,-1.1139333\Quadrup
 ole=-97.5595628,225.3355552,-127.7759925,-17.1706534,5.84564,14.296269
 3\PG=C01 [X(C28H31N2O3)]\\@


 OLD HORSE! OLD HORSE! WHAT BROUGHT YOU HERE?
 FROM SACARAP' TO PORTLAND PIER
 I'VE CARTED STONE THIS MANY A YEAR;
 TILL, KILLED BY BLOWS AND SORE ABUSE,
 THEY SALTED ME DOWN FOR SAILORS' USE.
 THE SAILORS THEY DO ME DESPISE;
 THEY TURN ME OVER AND DAMN MY EYES;
 CUT OFF MY MEAT, AND SCRAPE MY BONES,
 AND PITCH ME OVER TO DAVY JONES.

    SAILORS' COMPLAINT ABOUT THE BEEF
    SERVED ON SHIPBOARD, CIRCA 1835.
 Job cpu time:       5 days  3 hours 36 minutes  8.3 seconds.
 File lengths (MBytes):  RWF=   5718 Int=      0 D2E=      0 Chk=    956 Scr=      1
 Normal termination of Gaussian 09 at Sat May  2 16:12:31 2020.
