 Entering Gaussian System, Link 0=g09
 Initial command:
 /opt/sys/apps/gaussian09/D.01/g09/l1.exe "/tmp/Gau-18247.inp" -scrdir="/tmp/"
 Entering Link 1 = /opt/sys/apps/gaussian09/D.01/g09/l1.exe PID=     18248.
  
 Copyright (c) 1988,1990,1992,1993,1995,1998,2003,2009,2013,
            Gaussian, Inc.  All Rights Reserved.
  
 This is part of the Gaussian(R) 09 program.  It is based on
 the Gaussian(R) 03 system (copyright 2003, Gaussian, Inc.),
 the Gaussian(R) 98 system (copyright 1998, Gaussian, Inc.),
 the Gaussian(R) 94 system (copyright 1995, Gaussian, Inc.),
 the Gaussian 92(TM) system (copyright 1992, Gaussian, Inc.),
 the Gaussian 90(TM) system (copyright 1990, Gaussian, Inc.),
 the Gaussian 88(TM) system (copyright 1988, Gaussian, Inc.),
 the Gaussian 86(TM) system (copyright 1986, Carnegie Mellon
 University), and the Gaussian 82(TM) system (copyright 1983,
 Carnegie Mellon University). Gaussian is a federally registered
 trademark of Gaussian, Inc.
  
 This software contains proprietary and confidential information,
 including trade secrets, belonging to Gaussian, Inc.
  
 This software is provided under written license and may be
 used, copied, transmitted, or stored only in accord with that
 written license.
  
 The following legend is applicable only to US Government
 contracts under FAR:
  
                    RESTRICTED RIGHTS LEGEND
  
 Use, reproduction and disclosure by the US Government is
 subject to restrictions as set forth in subparagraphs (a)
 and (c) of the Commercial Computer Software - Restricted
 Rights clause in FAR 52.227-19.
  
 Gaussian, Inc.
 340 Quinnipiac St., Bldg. 40, Wallingford CT 06492
  
  
 ---------------------------------------------------------------
 Warning -- This program may not be used in any manner that
 competes with the business of Gaussian, Inc. or will provide
 assistance to any competitor of Gaussian, Inc.  The licensee
 of this program is prohibited from giving any competitor of
 Gaussian, Inc. access to this program.  By using this program,
 the user acknowledges that Gaussian, Inc. is engaged in the
 business of creating and licensing software in the field of
 computational chemistry and represents and warrants to the
 licensee that it is not a competitor of Gaussian, Inc. and that
 it will not use this program in any manner prohibited above.
 ---------------------------------------------------------------
  

 Cite this work as:
 Gaussian 09, Revision D.01,
 M. J. Frisch, G. W. Trucks, H. B. Schlegel, G. E. Scuseria, 
 M. A. Robb, J. R. Cheeseman, G. Scalmani, V. Barone, B. Mennucci, 
 G. A. Petersson, H. Nakatsuji, M. Caricato, X. Li, H. P. Hratchian, 
 A. F. Izmaylov, J. Bloino, G. Zheng, J. L. Sonnenberg, M. Hada, 
 M. Ehara, K. Toyota, R. Fukuda, J. Hasegawa, M. Ishida, T. Nakajima, 
 Y. Honda, O. Kitao, H. Nakai, T. Vreven, J. A. Montgomery, Jr., 
 J. E. Peralta, F. Ogliaro, M. Bearpark, J. J. Heyd, E. Brothers, 
 K. N. Kudin, V. N. Staroverov, T. Keith, R. Kobayashi, J. Normand, 
 K. Raghavachari, A. Rendell, J. C. Burant, S. S. Iyengar, J. Tomasi, 
 M. Cossi, N. Rega, J. M. Millam, M. Klene, J. E. Knox, J. B. Cross, 
 V. Bakken, C. Adamo, J. Jaramillo, R. Gomperts, R. E. Stratmann, 
 O. Yazyev, A. J. Austin, R. Cammi, C. Pomelli, J. W. Ochterski, 
 R. L. Martin, K. Morokuma, V. G. Zakrzewski, G. A. Voth, 
 P. Salvador, J. J. Dannenberg, S. Dapprich, A. D. Daniels, 
 O. Farkas, J. B. Foresman, J. V. Ortiz, J. Cioslowski, 
 and D. J. Fox, Gaussian, Inc., Wallingford CT, 2013.
 
 ******************************************
 Gaussian 09:  ES64L-G09RevD.01 24-Apr-2013
                17-Feb-2020 
 ******************************************
 %NProcShared=24
 Will use up to   24 processors via shared memory.
 %oldChk=checkpointCPCM_ethanol.chk
 %Chk=checkpointCPCM_ethanolES.chk
 %mem=50Gb
 Copying data from "checkpointCPCM_ethanol.chk" to current chk file "checkpointCPCM_ethanolES.chk".
 ----------------------------------------------------------------------
 #p CAM-B3LYP/6-311++G** nosym density=current geom=allcheck EmpiricalD
 ispersion=GD3 SCRF=(CPCM, solvent=ethanol) IOP(10/74=10) TD=(NSTATES=1
 0,ROOT=1,NONEQ) iop(3/119=0810000000) iop(3/120=0810000000)
 ----------------------------------------------------------------------
 1/29=7,30=1,38=1/1;
 2/12=2,15=1,40=1/2;
 3/5=4,6=6,7=1111,11=9,14=-4,16=1,25=1,30=1,70=2101,71=1,72=4,74=-40,119=810000000,120=810000000,124=31/1,2,8,3;
 4//1;
 5/5=2,38=5,53=4/2;
 8/6=1,10=2,107=1,108=10/1;
 9/8=1,15=1,41=10,42=1,70=2,73=1/14;
 10/5=4,13=10,31=1,74=10/2;
 6/7=2,8=2,9=2,10=2,22=-1/1;
 99/5=1,9=1/99;
 Leave Link    1 at Mon Feb 17 09:18:17 2020, MaxMem=  6710886400 cpu:        31.7
 (Enter /opt/sys/apps/gaussian09/D.01/g09/l101.exe)
 Structure from the checkpoint file:  "checkpointCPCM_ethanolES.chk"
 ---
 R6G
 ---
 Charge =  1 Multiplicity = 1
 Redundant internal coordinates found in file.
 C,0,1.4859025082,-12.4648864236,-0.3645416185
 C,0,0.0443221919,-12.4559466293,-0.4846735335
 C,0,-0.637277883,-11.2282727121,-0.6054327154
 C,0,2.1547475,-11.2719239181,-0.3781367248
 C,0,1.4925673115,-10.0172222915,-0.5029600818
 C,0,0.0777226729,-10.0493229455,-0.6094309647
 O,0,-0.6376449452,-8.8984578898,-0.7168078209
 C,0,2.148096349,-8.7745311292,-0.4984664949
 C,0,3.6376968485,-8.710151529,-0.4506291989
 C,0,4.3682919265,-8.5441764327,0.7415062914
 C,0,5.7671630993,-8.4800438017,0.6865278175
 C,0,6.4370277528,-8.5795464797,-0.5274149968
 C,0,5.712422808,-8.7442411607,-1.7061987519
 C,0,4.3217710531,-8.8088100559,-1.6649730618
 C,0,1.3945057642,-7.5962847957,-0.6302917874
 C,0,-0.0178843053,-7.6883014149,-0.7300115729
 C,0,-0.8260760999,-6.5771485145,-0.8364057875
 C,0,-0.248701317,-5.2916263688,-0.8522117669
 C,0,1.1883740461,-5.1563761596,-0.752057428
 C,0,1.9522000768,-6.2863463045,-0.6474428287
 C,0,1.8180554126,-3.788850255,-0.7666899434
 N,0,-1.0074119961,-4.180882282,-0.9746607845
 C,0,-2.4692210828,-4.1429716316,-1.0047013672
 C,0,-3.1037062421,-4.2952205634,0.3807438984
 N,0,-0.6292851571,-13.6244398292,-0.4769551617
 C,0,-2.0804470759,-13.760023406,-0.593468942
 C,0,-2.4852974927,-15.2275402227,-0.5321109087
 C,0,2.2209139126,-13.7713829635,-0.2264947666
 C,0,3.6523496254,-8.4476424376,2.0489795707
 O,0,2.4497937877,-8.5682343925,2.1793310693
 O,0,4.4817906501,-8.2136155034,3.0732879348
 C,0,3.8837518671,-8.1114701695,4.3974990871
 C,0,5.009951503,-7.8816389712,5.3814322155
 H,0,-1.713107394,-11.1824737341,-0.6922552831
 H,0,3.2340842356,-11.2711790853,-0.2883424234
 H,0,6.3240607661,-8.353970036,1.6047760302
 H,0,7.5188948894,-8.5300073578,-0.5528042136
 H,0,6.2251210142,-8.8228713912,-2.6576042496
 H,0,3.7569306249,-8.9341662356,-2.5811299304
 H,0,-1.8945163754,-6.721961515,-0.8997181524
 H,0,3.028374425,-6.189329449,-0.5729162408
 H,0,2.9018314284,-3.8633712876,-0.6784781715
 H,0,1.5956751138,-3.2539451423,-1.696539079
 H,0,1.4590787811,-3.1711441668,0.0640244421
 H,0,-2.8306101124,-4.9167940998,-1.6866510994
 H,0,-2.7482511963,-3.1844223508,-1.44409748
 H,0,-4.1929046742,-4.26312242,0.2970595109
 H,0,-2.8234453106,-5.2444083558,0.8425850389
 H,0,-2.7832538111,-3.4852434566,1.040241101
 H,0,-0.101714306,-14.4793270841,-0.3910439386
 H,0,-2.410257639,-13.314886954,-1.5386869269
 H,0,-2.5613523178,-13.2013761666,0.2168481423
 H,0,-3.5694372816,-15.3155349908,-0.620676993
 H,0,-2.0307823893,-15.7952041335,-1.3484474032
 H,0,-2.1840969742,-15.6786765327,0.4170438159
 H,0,1.9024606312,-14.3180796265,0.6677736347
 H,0,2.0496392049,-14.4224991618,-1.0906261686
 H,0,3.2947476006,-13.6027157181,-0.1469015046
 H,0,3.3396485917,-9.0359209921,4.6011503639
 H,0,3.168832055,-7.2861713497,4.3878153705
 H,0,4.5985394942,-7.8000049726,6.3904002829
 H,0,5.7177598652,-8.7132553918,5.3639682531
 H,0,5.5461807268,-6.9581281013,5.1522229006
 H,0,-0.5409747364,-3.2890191561,-0.9249085044
 Recover connectivity data from disk.
 NAtoms=     64 NQM=       64 NQMF=       0 NMMI=      0 NMMIF=      0
                NMic=       0 NMicF=      0.
                    Isotopes and Nuclear Properties:
 (Nuclear quadrupole moments (NQMom) in fm**2, nuclear magnetic moments (NMagM)
  in nuclear magnetons)

  Atom         1           2           3           4           5           6           7           8           9          10
 IAtWgt=          12          12          12          12          12          12          16          12          12          12
 AtmWgt=  12.0000000  12.0000000  12.0000000  12.0000000  12.0000000  12.0000000  15.9949146  12.0000000  12.0000000  12.0000000
 NucSpn=           0           0           0           0           0           0           0           0           0           0
 AtZEff=  -3.6000000  -3.6000000  -3.6000000  -3.6000000  -3.6000000  -3.6000000  -5.6000000  -3.6000000  -3.6000000  -3.6000000
 NQMom=    0.0000000   0.0000000   0.0000000   0.0000000   0.0000000   0.0000000   0.0000000   0.0000000   0.0000000   0.0000000
 NMagM=    0.0000000   0.0000000   0.0000000   0.0000000   0.0000000   0.0000000   0.0000000   0.0000000   0.0000000   0.0000000
 AtZNuc=   6.0000000   6.0000000   6.0000000   6.0000000   6.0000000   6.0000000   8.0000000   6.0000000   6.0000000   6.0000000

  Atom        11          12          13          14          15          16          17          18          19          20
 IAtWgt=          12          12          12          12          12          12          12          12          12          12
 AtmWgt=  12.0000000  12.0000000  12.0000000  12.0000000  12.0000000  12.0000000  12.0000000  12.0000000  12.0000000  12.0000000
 NucSpn=           0           0           0           0           0           0           0           0           0           0
 AtZEff=  -3.6000000  -3.6000000  -3.6000000  -3.6000000  -3.6000000  -3.6000000  -3.6000000  -3.6000000  -3.6000000  -3.6000000
 NQMom=    0.0000000   0.0000000   0.0000000   0.0000000   0.0000000   0.0000000   0.0000000   0.0000000   0.0000000   0.0000000
 NMagM=    0.0000000   0.0000000   0.0000000   0.0000000   0.0000000   0.0000000   0.0000000   0.0000000   0.0000000   0.0000000
 AtZNuc=   6.0000000   6.0000000   6.0000000   6.0000000   6.0000000   6.0000000   6.0000000   6.0000000   6.0000000   6.0000000

  Atom        21          22          23          24          25          26          27          28          29          30
 IAtWgt=          12          14          12          12          14          12          12          12          12          16
 AtmWgt=  12.0000000  14.0030740  12.0000000  12.0000000  14.0030740  12.0000000  12.0000000  12.0000000  12.0000000  15.9949146
 NucSpn=           0           2           0           0           2           0           0           0           0           0
 AtZEff=  -3.6000000  -4.5500000  -3.6000000  -3.6000000  -4.5500000  -3.6000000  -3.6000000  -3.6000000  -3.6000000  -5.6000000
 NQMom=    0.0000000   2.0440000   0.0000000   0.0000000   2.0440000   0.0000000   0.0000000   0.0000000   0.0000000   0.0000000
 NMagM=    0.0000000   0.4037610   0.0000000   0.0000000   0.4037610   0.0000000   0.0000000   0.0000000   0.0000000   0.0000000
 AtZNuc=   6.0000000   7.0000000   6.0000000   6.0000000   7.0000000   6.0000000   6.0000000   6.0000000   6.0000000   8.0000000

  Atom        31          32          33          34          35          36          37          38          39          40
 IAtWgt=          16          12          12           1           1           1           1           1           1           1
 AtmWgt=  15.9949146  12.0000000  12.0000000   1.0078250   1.0078250   1.0078250   1.0078250   1.0078250   1.0078250   1.0078250
 NucSpn=           0           0           0           1           1           1           1           1           1           1
 AtZEff=  -5.6000000  -3.6000000  -3.6000000  -1.0000000  -1.0000000  -1.0000000  -1.0000000  -1.0000000  -1.0000000  -1.0000000
 NQMom=    0.0000000   0.0000000   0.0000000   0.0000000   0.0000000   0.0000000   0.0000000   0.0000000   0.0000000   0.0000000
 NMagM=    0.0000000   0.0000000   0.0000000   2.7928460   2.7928460   2.7928460   2.7928460   2.7928460   2.7928460   2.7928460
 AtZNuc=   8.0000000   6.0000000   6.0000000   1.0000000   1.0000000   1.0000000   1.0000000   1.0000000   1.0000000   1.0000000

  Atom        41          42          43          44          45          46          47          48          49          50
 IAtWgt=           1           1           1           1           1           1           1           1           1           1
 AtmWgt=   1.0078250   1.0078250   1.0078250   1.0078250   1.0078250   1.0078250   1.0078250   1.0078250   1.0078250   1.0078250
 NucSpn=           1           1           1           1           1           1           1           1           1           1
 AtZEff=  -1.0000000  -1.0000000  -1.0000000  -1.0000000  -1.0000000  -1.0000000  -1.0000000  -1.0000000  -1.0000000  -1.0000000
 NQMom=    0.0000000   0.0000000   0.0000000   0.0000000   0.0000000   0.0000000   0.0000000   0.0000000   0.0000000   0.0000000
 NMagM=    2.7928460   2.7928460   2.7928460   2.7928460   2.7928460   2.7928460   2.7928460   2.7928460   2.7928460   2.7928460
 AtZNuc=   1.0000000   1.0000000   1.0000000   1.0000000   1.0000000   1.0000000   1.0000000   1.0000000   1.0000000   1.0000000

  Atom        51          52          53          54          55          56          57          58          59          60
 IAtWgt=           1           1           1           1           1           1           1           1           1           1
 AtmWgt=   1.0078250   1.0078250   1.0078250   1.0078250   1.0078250   1.0078250   1.0078250   1.0078250   1.0078250   1.0078250
 NucSpn=           1           1           1           1           1           1           1           1           1           1
 AtZEff=  -1.0000000  -1.0000000  -1.0000000  -1.0000000  -1.0000000  -1.0000000  -1.0000000  -1.0000000  -1.0000000  -1.0000000
 NQMom=    0.0000000   0.0000000   0.0000000   0.0000000   0.0000000   0.0000000   0.0000000   0.0000000   0.0000000   0.0000000
 NMagM=    2.7928460   2.7928460   2.7928460   2.7928460   2.7928460   2.7928460   2.7928460   2.7928460   2.7928460   2.7928460
 AtZNuc=   1.0000000   1.0000000   1.0000000   1.0000000   1.0000000   1.0000000   1.0000000   1.0000000   1.0000000   1.0000000

  Atom        61          62          63          64
 IAtWgt=           1           1           1           1
 AtmWgt=   1.0078250   1.0078250   1.0078250   1.0078250
 NucSpn=           1           1           1           1
 AtZEff=  -1.0000000  -1.0000000  -1.0000000  -1.0000000
 NQMom=    0.0000000   0.0000000   0.0000000   0.0000000
 NMagM=    2.7928460   2.7928460   2.7928460   2.7928460
 AtZNuc=   1.0000000   1.0000000   1.0000000   1.0000000
 Leave Link  101 at Mon Feb 17 09:18:18 2020, MaxMem=  6710886400 cpu:         7.0
 (Enter /opt/sys/apps/gaussian09/D.01/g09/l202.exe)
 Symmetry turned off by external request.
 Stoichiometry    C28H31N2O3(1+)
 Framework group  C1[X(C28H31N2O3)]
 Deg. of freedom   186
 Full point group                 C1      NOp   1
                          Input orientation:                          
 ---------------------------------------------------------------------
 Center     Atomic      Atomic             Coordinates (Angstroms)
 Number     Number       Type             X           Y           Z
 ---------------------------------------------------------------------
      1          6           0        1.485903  -12.464886   -0.364542
      2          6           0        0.044322  -12.455947   -0.484674
      3          6           0       -0.637278  -11.228273   -0.605433
      4          6           0        2.154747  -11.271924   -0.378137
      5          6           0        1.492567  -10.017222   -0.502960
      6          6           0        0.077723  -10.049323   -0.609431
      7          8           0       -0.637645   -8.898458   -0.716808
      8          6           0        2.148096   -8.774531   -0.498466
      9          6           0        3.637697   -8.710152   -0.450629
     10          6           0        4.368292   -8.544176    0.741506
     11          6           0        5.767163   -8.480044    0.686528
     12          6           0        6.437028   -8.579546   -0.527415
     13          6           0        5.712423   -8.744241   -1.706199
     14          6           0        4.321771   -8.808810   -1.664973
     15          6           0        1.394506   -7.596285   -0.630292
     16          6           0       -0.017884   -7.688301   -0.730012
     17          6           0       -0.826076   -6.577149   -0.836406
     18          6           0       -0.248701   -5.291626   -0.852212
     19          6           0        1.188374   -5.156376   -0.752057
     20          6           0        1.952200   -6.286346   -0.647443
     21          6           0        1.818055   -3.788850   -0.766690
     22          7           0       -1.007412   -4.180882   -0.974661
     23          6           0       -2.469221   -4.142972   -1.004701
     24          6           0       -3.103706   -4.295221    0.380744
     25          7           0       -0.629285  -13.624440   -0.476955
     26          6           0       -2.080447  -13.760023   -0.593469
     27          6           0       -2.485297  -15.227540   -0.532111
     28          6           0        2.220914  -13.771383   -0.226495
     29          6           0        3.652350   -8.447642    2.048980
     30          8           0        2.449794   -8.568234    2.179331
     31          8           0        4.481791   -8.213616    3.073288
     32          6           0        3.883752   -8.111470    4.397499
     33          6           0        5.009952   -7.881639    5.381432
     34          1           0       -1.713107  -11.182474   -0.692255
     35          1           0        3.234084  -11.271179   -0.288342
     36          1           0        6.324061   -8.353970    1.604776
     37          1           0        7.518895   -8.530007   -0.552804
     38          1           0        6.225121   -8.822871   -2.657604
     39          1           0        3.756931   -8.934166   -2.581130
     40          1           0       -1.894516   -6.721962   -0.899718
     41          1           0        3.028374   -6.189329   -0.572916
     42          1           0        2.901831   -3.863371   -0.678478
     43          1           0        1.595675   -3.253945   -1.696539
     44          1           0        1.459079   -3.171144    0.064024
     45          1           0       -2.830610   -4.916794   -1.686651
     46          1           0       -2.748251   -3.184422   -1.444097
     47          1           0       -4.192905   -4.263122    0.297060
     48          1           0       -2.823445   -5.244408    0.842585
     49          1           0       -2.783254   -3.485243    1.040241
     50          1           0       -0.101714  -14.479327   -0.391044
     51          1           0       -2.410258  -13.314887   -1.538687
     52          1           0       -2.561352  -13.201376    0.216848
     53          1           0       -3.569437  -15.315535   -0.620677
     54          1           0       -2.030782  -15.795204   -1.348447
     55          1           0       -2.184097  -15.678677    0.417044
     56          1           0        1.902461  -14.318080    0.667774
     57          1           0        2.049639  -14.422499   -1.090626
     58          1           0        3.294748  -13.602716   -0.146902
     59          1           0        3.339649   -9.035921    4.601150
     60          1           0        3.168832   -7.286171    4.387815
     61          1           0        4.598539   -7.800005    6.390400
     62          1           0        5.717760   -8.713255    5.363968
     63          1           0        5.546181   -6.958128    5.152223
     64          1           0       -0.540975   -3.289019   -0.924909
 ---------------------------------------------------------------------
 Rotational constants (GHZ):      0.1195192      0.0999779      0.0683023
 Leave Link  202 at Mon Feb 17 09:18:18 2020, MaxMem=  6710886400 cpu:         0.1
 (Enter /opt/sys/apps/gaussian09/D.01/g09/l301.exe)
 Standard basis: 6-311++G(d,p) (5D, 7F)
 Ernie: Thresh=  0.10000D-02 Tol=  0.10000D-05 Strict=F.
   943 basis functions,  1467 primitive gaussians,   976 cartesian basis functions
   118 alpha electrons      118 beta electrons
       nuclear repulsion energy      3331.9739853769 Hartrees.
 IExCor=20419 DFT=T Ex+Corr=CAM-B3LYP ExCW=0 ScaHFX=  1.000000
 ScaDFX=  1.000000  1.000000  1.000000  0.810000 ScalE2=  1.000000  1.000000
 IRadAn=      0 IRanWt=     -1 IRanGd=            0 ICorTp=0 IEmpDi=131
  HFx wShort=  0.000000 wLong=  0.330000 cFull=  0.190000 cShort=  0.000000 cLong=  0.810000
  DFx wShort=  0.000000 wLong=  0.330000 cFull=  0.190000 cShort=  0.000000 cLong=  0.810000
 NAtoms=   64 NActive=   64 NUniq=   64 SFac= 1.00D+00 NAtFMM=   60 NAOKFM=T Big=T
 Integral buffers will be    131072 words long.
 Raffenetti 1 integral format.
 Two-electron integral symmetry is turned off.
 R6Disp:  Grimme-D3 Dispersion energy=       -0.0468781935 Hartrees.
 Nuclear repulsion after empirical dispersion term =     3331.9271071834 Hartrees.
 ------------------------------------------------------------------------------
 Polarizable Continuum Model (PCM)
 =================================
 Model                : C-PCM.
 Atomic radii         : UFF (Universal Force Field).
 Polarization charges : Total charges.
 Charge compensation  : None.
 Solution method      : On-the-fly selection.
 Cavity type          : Scaled VdW (van der Waals Surface) (Alpha=1.100).
 Cavity algorithm     : GePol (No added spheres)
                        Default sphere list used, NSphG=   64.
                        Lebedev-Laikov grids with approx.  5.0 points / Ang**2.
                        Smoothing algorithm: Karplus/York (Gamma=1.0000).
                        Polarization charges: spherical gaussians, with
                                              point-specific exponents (IZeta= 3).
                        Self-potential: point-specific (ISelfS= 7).
                        Self-field    : sphere-specific E.n sum rule (ISelfD= 2).
 1st derivatives      : Analytical E(r).r(x)/FMM algorithm (CHGder, D1EAlg=3).
                        Cavity 1st derivative terms included.
 Solvent              : Ethanol, Eps=  24.852000 Eps(inf)=   1.852593
 ------------------------------------------------------------------------------
 GePol: Number of generator spheres                  =      64
 GePol: Total number of spheres                      =      64
 GePol: Number of exposed spheres                    =      64 (100.00%)
 GePol: Number of points                             =    4494
 GePol: Average weight of points                     =       0.13
 GePol: Minimum weight of points                     =   0.31D-09
 GePol: Maximum weight of points                     =    0.20577
 GePol: Number of points with low weight             =     331
 GePol: Fraction of low-weight points (<1% of avg)   =       7.37%
 GePol: Cavity surface area                          =    567.766 Ang**2
 GePol: Cavity volume                                =    632.715 Ang**3
 Leave Link  301 at Mon Feb 17 09:18:18 2020, MaxMem=  6710886400 cpu:         7.8
 (Enter /opt/sys/apps/gaussian09/D.01/g09/l302.exe)
 NPDir=0 NMtPBC=     1 NCelOv=     1 NCel=       1 NClECP=     1 NCelD=      1
         NCelK=      1 NCelE2=     1 NClLst=     1 CellRange=     0.0.
 One-electron integrals computed using PRISM.
 NBasis=   943 RedAO= T EigKep=  1.63D-06  NBF=   943
 NBsUse=   926 1.00D-06 EigRej=  9.43D-07 NBFU=   926
 Precomputing XC quadrature grid using
 IXCGrd= 4 IRadAn=           0 IRanWt=          -1 IRanGd=           0 AccXCQ= 0.00D+00.
 Generated NRdTot=       0 NPtTot=           0 NUsed=           0 NTot=          32
 NSgBfM=   935   935   935   935   935 MxSgAt=    64 MxSgA2=    64.
 Leave Link  302 at Mon Feb 17 09:18:20 2020, MaxMem=  6710886400 cpu:        48.7
 (Enter /opt/sys/apps/gaussian09/D.01/g09/l308.exe)
 Leave Link  308 at Mon Feb 17 09:18:21 2020, MaxMem=  6710886400 cpu:         4.7
 (Enter /opt/sys/apps/gaussian09/D.01/g09/l303.exe)
 DipDrv:  MaxL=1.
 Leave Link  303 at Mon Feb 17 09:18:21 2020, MaxMem=  6710886400 cpu:         5.3
 (Enter /opt/sys/apps/gaussian09/D.01/g09/l401.exe)
 ExpMin= 3.60D-02 ExpMax= 8.59D+03 ExpMxC= 1.30D+03 IAcc=3 IRadAn=         5 AccDes= 0.00D+00
 Harris functional with IExCor=20419 and IRadAn=       5 diagonalized for initial guess.
 HarFok:  IExCor=20419 AccDes= 0.00D+00 IRadAn=         5 IDoV= 1 UseB2=F ITyADJ=14
 ICtDFT=  3500011 ScaDFX=  1.000000  1.000000  1.000000  1.000000
 FoFCou: FMM=F IPFlag=           0 FMFlag=      100000 FMFlg1=        2001
         NFxFlg=           0 DoJE=T BraDBF=F KetDBF=T FulRan=T
         wScrn=  0.000000 ICntrl=     500 IOpCl=  0 I1Cent=   200000004 NGrid=           0
         NMat0=    1 NMatS0=      1 NMatT0=    0 NMatD0=    1 NMtDS0=    0 NMtDT0=    0
 Symmetry not used in FoFCou.
 Harris En= -1349.48280899242    
 JPrj=0 DoOrth=F DoCkMO=F.
 Leave Link  401 at Mon Feb 17 09:18:29 2020, MaxMem=  6710886400 cpu:       169.2
 (Enter /opt/sys/apps/gaussian09/D.01/g09/l502.exe)
 Closed shell SCF:
 Using DIIS extrapolation, IDIIS=  1040.
 Two-electron integral symmetry not used.
 IVT=     2905686 IEndB=     2905686 NGot=  6710886400 MDV=  6708950907
 LenX=  6708950907 LenY=  6707997355
 Requested convergence on RMS density matrix=1.00D-08 within 128 cycles.
 Requested convergence on MAX density matrix=1.00D-06.
 Requested convergence on             energy=1.00D-06.
 No special actions if energy rises.
 Fock matrices will be formed incrementally for  20 cycles.

 Cycle   1  Pass 1  IDiag  1:
 FoFJK:  IHMeth= 1 ICntrl=       0 DoSepK=T KAlg= 0 I1Cent=   0 FoldK=F
 IRaf=         1 NMat=   1 IRICut=       1 DoRegI=T DoRafI=F ISym2E= 0.
 FoFCou: FMM=T IPFlag=           0 FMFlag=      100000 FMFlg1=        2001
         NFxFlg=           0 DoJE=T BraDBF=F KetDBF=F FulRan=T
         wScrn=  0.000000 ICntrl=     500 IOpCl=  0 I1Cent=           0 NGrid=           0
         NMat0=    1 NMatS0=      1 NMatT0=    0 NMatD0=    1 NMtDS0=    0 NMtDT0=    0
 Symmetry not used in FoFCou.
 FMM levels:  10  Number of levels for PrismC:   9
 Inv3:  Mode=1 IEnd=    60588108.
 Iteration    1 A*A^-1 deviation from unit magnitude is 7.44D-15 for   4472.
 Iteration    1 A*A^-1 deviation from orthogonality  is 5.22D-15 for   4490   4369.
 Iteration    1 A^-1*A deviation from unit magnitude is 7.44D-15 for   4472.
 Iteration    1 A^-1*A deviation from orthogonality  is 3.56D-15 for   3758   2591.
 E= -1418.79083241436    
 DIIS: error= 4.79D-02 at cycle   1 NSaved=   1.
 NSaved= 1 IEnMin= 1 EnMin= -1418.79083241436     IErMin= 1 ErrMin= 4.79D-02
 ErrMax= 4.79D-02  0.00D+00 EMaxC= 1.00D-01 BMatC= 2.55D+00 BMatP= 2.55D+00
 IDIUse=3 WtCom= 5.21D-01 WtEn= 4.79D-01
 Coeff-Com:  0.100D+01
 Coeff-En:   0.100D+01
 Coeff:      0.100D+01
 Gap=     0.348 Goal=   None    Shift=    0.000
 GapD=    0.348 DampG=1.000 DampE=0.500 DampFc=0.5000 IDamp=-1.
 Damping current iteration by 5.00D-01
 RMSDP=8.05D-03 MaxDP=1.42D+00              OVMax= 1.61D-01

 Cycle   2  Pass 1  IDiag  1:
 RMSU=  3.87D-03    CP:  1.04D+00
 E= -1419.04968187833     Delta-E=       -0.258849463973 Rises=F Damp=T
 DIIS: error= 2.11D-02 at cycle   2 NSaved=   2.
 NSaved= 2 IEnMin= 2 EnMin= -1419.04968187833     IErMin= 2 ErrMin= 2.11D-02
 ErrMax= 2.11D-02  0.00D+00 EMaxC= 1.00D-01 BMatC= 5.08D-01 BMatP= 2.55D+00
 IDIUse=3 WtCom= 7.89D-01 WtEn= 2.11D-01
 Coeff-Com: -0.532D+00 0.153D+01
 Coeff-En:   0.000D+00 0.100D+01
 Coeff:     -0.419D+00 0.142D+01
 Gap=     0.261 Goal=   None    Shift=    0.000
 RMSDP=4.03D-03 MaxDP=6.60D-01 DE=-2.59D-01 OVMax= 1.37D-01

 Cycle   3  Pass 1  IDiag  1:
 RMSU=  3.55D-03    CP:  1.06D+00  1.47D+00
 E= -1419.24472939647     Delta-E=       -0.195047518139 Rises=F Damp=F
 DIIS: error= 1.21D-02 at cycle   3 NSaved=   3.
 NSaved= 3 IEnMin= 3 EnMin= -1419.24472939647     IErMin= 3 ErrMin= 1.21D-02
 ErrMax= 1.21D-02  0.00D+00 EMaxC= 1.00D-01 BMatC= 1.11D-01 BMatP= 5.08D-01
 IDIUse=3 WtCom= 8.79D-01 WtEn= 1.21D-01
 Coeff-Com: -0.311D+00 0.675D+00 0.636D+00
 Coeff-En:   0.000D+00 0.000D+00 0.100D+01
 Coeff:     -0.273D+00 0.593D+00 0.680D+00
 Gap=     0.251 Goal=   None    Shift=    0.000
 RMSDP=1.79D-03 MaxDP=2.23D-01 DE=-1.95D-01 OVMax= 5.04D-02

 Cycle   4  Pass 1  IDiag  1:
 RMSU=  8.00D-04    CP:  1.02D+00  1.73D+00  8.06D-01
 E= -1419.31757755904     Delta-E=       -0.072848162567 Rises=F Damp=F
 DIIS: error= 3.54D-03 at cycle   4 NSaved=   4.
 NSaved= 4 IEnMin= 4 EnMin= -1419.31757755904     IErMin= 4 ErrMin= 3.54D-03
 ErrMax= 3.54D-03  0.00D+00 EMaxC= 1.00D-01 BMatC= 8.05D-03 BMatP= 1.11D-01
 IDIUse=3 WtCom= 9.65D-01 WtEn= 3.54D-02
 Coeff-Com: -0.116D+00 0.247D+00 0.344D+00 0.525D+00
 Coeff-En:   0.000D+00 0.000D+00 0.000D+00 0.100D+01
 Coeff:     -0.112D+00 0.239D+00 0.332D+00 0.542D+00
 Gap=     0.249 Goal=   None    Shift=    0.000
 RMSDP=5.19D-04 MaxDP=7.16D-02 DE=-7.28D-02 OVMax= 9.60D-03

 Cycle   5  Pass 1  IDiag  1:
 RMSU=  2.73D-04    CP:  1.04D+00  1.73D+00  8.32D-01  6.42D-01
 E= -1419.32283740381     Delta-E=       -0.005259844767 Rises=F Damp=F
 DIIS: error= 4.09D-04 at cycle   5 NSaved=   5.
 NSaved= 5 IEnMin= 5 EnMin= -1419.32283740381     IErMin= 5 ErrMin= 4.09D-04
 ErrMax= 4.09D-04  0.00D+00 EMaxC= 1.00D-01 BMatC= 1.44D-04 BMatP= 8.05D-03
 IDIUse=3 WtCom= 9.96D-01 WtEn= 4.09D-03
 Coeff-Com:  0.144D-01-0.323D-01-0.288D-02 0.954D-01 0.925D+00
 Coeff-En:   0.000D+00 0.000D+00 0.000D+00 0.000D+00 0.100D+01
 Coeff:      0.144D-01-0.322D-01-0.287D-02 0.950D-01 0.926D+00
 Gap=     0.251 Goal=   None    Shift=    0.000
 RMSDP=2.22D-04 MaxDP=3.14D-02 DE=-5.26D-03 OVMax= 6.76D-03

 Cycle   6  Pass 1  IDiag  1:
 RMSU=  1.10D-04    CP:  1.03D+00  1.76D+00  8.51D-01  7.01D-01  1.36D+00
 E= -1419.32305079227     Delta-E=       -0.000213388466 Rises=F Damp=F
 DIIS: error= 3.03D-04 at cycle   6 NSaved=   6.
 NSaved= 6 IEnMin= 6 EnMin= -1419.32305079227     IErMin= 6 ErrMin= 3.03D-04
 ErrMax= 3.03D-04  0.00D+00 EMaxC= 1.00D-01 BMatC= 5.75D-05 BMatP= 1.44D-04
 IDIUse=3 WtCom= 9.97D-01 WtEn= 3.03D-03
 Coeff-Com:  0.223D-01-0.483D-01-0.469D-01-0.326D-01 0.458D+00 0.648D+00
 Coeff-En:   0.000D+00 0.000D+00 0.000D+00 0.000D+00 0.000D+00 0.100D+01
 Coeff:      0.222D-01-0.481D-01-0.467D-01-0.325D-01 0.456D+00 0.649D+00
 Gap=     0.252 Goal=   None    Shift=    0.000
 RMSDP=7.62D-05 MaxDP=8.97D-03 DE=-2.13D-04 OVMax= 2.56D-03

 Cycle   7  Pass 1  IDiag  1:
 RMSU=  3.58D-05    CP:  1.03D+00  1.76D+00  8.53D-01  7.11D-01  1.48D+00
                    CP:  1.07D+00
 E= -1419.32311349889     Delta-E=       -0.000062706622 Rises=F Damp=F
 DIIS: error= 7.37D-05 at cycle   7 NSaved=   7.
 NSaved= 7 IEnMin= 7 EnMin= -1419.32311349889     IErMin= 7 ErrMin= 7.37D-05
 ErrMax= 7.37D-05  0.00D+00 EMaxC= 1.00D-01 BMatC= 3.44D-06 BMatP= 5.75D-05
 IDIUse=1 WtCom= 1.00D+00 WtEn= 0.00D+00
 Coeff-Com:  0.373D-02-0.783D-02-0.115D-01-0.216D-01-0.545D-02 0.152D+00
 Coeff-Com:  0.890D+00
 Coeff:      0.373D-02-0.783D-02-0.115D-01-0.216D-01-0.545D-02 0.152D+00
 Coeff:      0.890D+00
 Gap=     0.252 Goal=   None    Shift=    0.000
 RMSDP=2.43D-05 MaxDP=2.25D-03 DE=-6.27D-05 OVMax= 1.87D-03

 Cycle   8  Pass 1  IDiag  1:
 RMSU=  1.03D-05    CP:  1.03D+00  1.77D+00  8.50D-01  7.07D-01  1.53D+00
                    CP:  1.14D+00  1.22D+00
 E= -1419.32312196206     Delta-E=       -0.000008463164 Rises=F Damp=F
 DIIS: error= 2.94D-05 at cycle   8 NSaved=   8.
 NSaved= 8 IEnMin= 8 EnMin= -1419.32312196206     IErMin= 8 ErrMin= 2.94D-05
 ErrMax= 2.94D-05  0.00D+00 EMaxC= 1.00D-01 BMatC= 9.24D-07 BMatP= 3.44D-06
 IDIUse=1 WtCom= 1.00D+00 WtEn= 0.00D+00
 Coeff-Com: -0.278D-02 0.607D-02 0.472D-02-0.242D-02-0.809D-01-0.619D-01
 Coeff-Com:  0.333D+00 0.805D+00
 Coeff:     -0.278D-02 0.607D-02 0.472D-02-0.242D-02-0.809D-01-0.619D-01
 Coeff:      0.333D+00 0.805D+00
 Gap=     0.252 Goal=   None    Shift=    0.000
 RMSDP=9.55D-06 MaxDP=9.17D-04 DE=-8.46D-06 OVMax= 8.90D-04

 Cycle   9  Pass 1  IDiag  1:
 RMSU=  5.64D-06    CP:  1.03D+00  1.77D+00  8.49D-01  7.07D-01  1.53D+00
                    CP:  1.17D+00  1.36D+00  1.26D+00
 E= -1419.32312387614     Delta-E=       -0.000001914081 Rises=F Damp=F
 DIIS: error= 1.37D-05 at cycle   9 NSaved=   9.
 NSaved= 9 IEnMin= 9 EnMin= -1419.32312387614     IErMin= 9 ErrMin= 1.37D-05
 ErrMax= 1.37D-05  0.00D+00 EMaxC= 1.00D-01 BMatC= 1.37D-07 BMatP= 9.24D-07
 IDIUse=1 WtCom= 1.00D+00 WtEn= 0.00D+00
 Coeff-Com: -0.124D-02 0.264D-02 0.309D-02 0.217D-02-0.168D-01-0.445D-01
 Coeff-Com: -0.746D-01 0.214D+00 0.915D+00
 Coeff:     -0.124D-02 0.264D-02 0.309D-02 0.217D-02-0.168D-01-0.445D-01
 Coeff:     -0.746D-01 0.214D+00 0.915D+00
 Gap=     0.252 Goal=   None    Shift=    0.000
 RMSDP=5.66D-06 MaxDP=8.64D-04 DE=-1.91D-06 OVMax= 4.17D-04

 Cycle  10  Pass 1  IDiag  1:
 RMSU=  3.12D-06    CP:  1.03D+00  1.77D+00  8.49D-01  7.06D-01  1.53D+00
                    CP:  1.16D+00  1.44D+00  1.44D+00  1.15D+00
 E= -1419.32312424063     Delta-E=       -0.000000364489 Rises=F Damp=F
 DIIS: error= 6.15D-06 at cycle  10 NSaved=  10.
 NSaved=10 IEnMin=10 EnMin= -1419.32312424063     IErMin=10 ErrMin= 6.15D-06
 ErrMax= 6.15D-06  0.00D+00 EMaxC= 1.00D-01 BMatC= 1.88D-08 BMatP= 1.37D-07
 IDIUse=1 WtCom= 1.00D+00 WtEn= 0.00D+00
 Coeff-Com:  0.116D-03-0.264D-03 0.566D-04 0.586D-03 0.778D-02-0.453D-02
 Coeff-Com: -0.715D-01-0.539D-01 0.281D+00 0.840D+00
 Coeff:      0.116D-03-0.264D-03 0.566D-04 0.586D-03 0.778D-02-0.453D-02
 Coeff:     -0.715D-01-0.539D-01 0.281D+00 0.840D+00
 Gap=     0.252 Goal=   None    Shift=    0.000
 RMSDP=1.77D-06 MaxDP=1.22D-04 DE=-3.64D-07 OVMax= 1.75D-04

 Cycle  11  Pass 1  IDiag  1:
 RMSU=  9.51D-07    CP:  1.03D+00  1.77D+00  8.49D-01  7.05D-01  1.53D+00
                    CP:  1.15D+00  1.45D+00  1.49D+00  1.22D+00  1.13D+00
 E= -1419.32312429914     Delta-E=       -0.000000058511 Rises=F Damp=F
 DIIS: error= 3.45D-06 at cycle  11 NSaved=  11.
 NSaved=11 IEnMin=11 EnMin= -1419.32312429914     IErMin=11 ErrMin= 3.45D-06
 ErrMax= 3.45D-06  0.00D+00 EMaxC= 1.00D-01 BMatC= 3.26D-09 BMatP= 1.88D-08
 IDIUse=1 WtCom= 1.00D+00 WtEn= 0.00D+00
 Coeff-Com:  0.195D-03-0.418D-03-0.426D-03-0.140D-03 0.406D-02 0.516D-02
 Coeff-Com: -0.330D-02-0.412D-01-0.916D-01 0.189D+00 0.939D+00
 Coeff:      0.195D-03-0.418D-03-0.426D-03-0.140D-03 0.406D-02 0.516D-02
 Coeff:     -0.330D-02-0.412D-01-0.916D-01 0.189D+00 0.939D+00
 Gap=     0.252 Goal=   None    Shift=    0.000
 RMSDP=1.11D-06 MaxDP=1.46D-04 DE=-5.85D-08 OVMax= 5.84D-05

 Cycle  12  Pass 1  IDiag  1:
 RMSU=  3.96D-07    CP:  1.03D+00  1.77D+00  8.49D-01  7.05D-01  1.53D+00
                    CP:  1.15D+00  1.45D+00  1.49D+00  1.21D+00  1.36D+00
                    CP:  1.40D+00
 E= -1419.32312431168     Delta-E=       -0.000000012541 Rises=F Damp=F
 DIIS: error= 1.81D-06 at cycle  12 NSaved=  12.
 NSaved=12 IEnMin=12 EnMin= -1419.32312431168     IErMin=12 ErrMin= 1.81D-06
 ErrMax= 1.81D-06  0.00D+00 EMaxC= 1.00D-01 BMatC= 5.18D-10 BMatP= 3.26D-09
 IDIUse=1 WtCom= 1.00D+00 WtEn= 0.00D+00
 Coeff-Com:  0.149D-04-0.301D-04-0.893D-04-0.107D-03-0.646D-03 0.204D-02
 Coeff-Com:  0.139D-01 0.384D-02-0.829D-01-0.100D+00 0.181D+00 0.983D+00
 Coeff:      0.149D-04-0.301D-04-0.893D-04-0.107D-03-0.646D-03 0.204D-02
 Coeff:      0.139D-01 0.384D-02-0.829D-01-0.100D+00 0.181D+00 0.983D+00
 Gap=     0.252 Goal=   None    Shift=    0.000
 RMSDP=7.34D-07 MaxDP=8.33D-05 DE=-1.25D-08 OVMax= 3.37D-05

 Cycle  13  Pass 1  IDiag  1:
 RMSU=  2.57D-07    CP:  1.03D+00  1.77D+00  8.49D-01  7.04D-01  1.53D+00
                    CP:  1.15D+00  1.45D+00  1.48D+00  1.18D+00  1.48D+00
                    CP:  1.65D+00  1.50D+00
 E= -1419.32312431487     Delta-E=       -0.000000003191 Rises=F Damp=F
 DIIS: error= 6.88D-07 at cycle  13 NSaved=  13.
 NSaved=13 IEnMin=13 EnMin= -1419.32312431487     IErMin=13 ErrMin= 6.88D-07
 ErrMax= 6.88D-07  0.00D+00 EMaxC= 1.00D-01 BMatC= 1.23D-10 BMatP= 5.18D-10
 IDIUse=1 WtCom= 1.00D+00 WtEn= 0.00D+00
 Coeff-Com: -0.242D-04 0.524D-04 0.482D-04-0.178D-04-0.770D-03-0.506D-03
 Coeff-Com:  0.230D-02 0.802D-02-0.210D-02-0.416D-01-0.163D+00 0.175D+00
 Coeff-Com:  0.102D+01
 Coeff:     -0.242D-04 0.524D-04 0.482D-04-0.178D-04-0.770D-03-0.506D-03
 Coeff:      0.230D-02 0.802D-02-0.210D-02-0.416D-01-0.163D+00 0.175D+00
 Coeff:      0.102D+01
 Gap=     0.252 Goal=   None    Shift=    0.000
 RMSDP=4.97D-07 MaxDP=5.43D-05 DE=-3.19D-09 OVMax= 1.84D-05

 Cycle  14  Pass 1  IDiag  1:
 RMSU=  8.04D-08    CP:  1.03D+00  1.77D+00  8.49D-01  7.04D-01  1.53D+00
                    CP:  1.15D+00  1.44D+00  1.48D+00  1.16D+00  1.55D+00
                    CP:  1.77D+00  1.90D+00  1.60D+00
 E= -1419.32312431518     Delta-E=       -0.000000000306 Rises=F Damp=F
 DIIS: error= 2.80D-07 at cycle  14 NSaved=  14.
 NSaved=14 IEnMin=14 EnMin= -1419.32312431518     IErMin=14 ErrMin= 2.80D-07
 ErrMax= 2.80D-07  0.00D+00 EMaxC= 1.00D-01 BMatC= 2.46D-11 BMatP= 1.23D-10
 IDIUse=1 WtCom= 1.00D+00 WtEn= 0.00D+00
 Coeff-Com: -0.702D-05 0.150D-04 0.254D-04 0.293D-05-0.995D-04-0.415D-03
 Coeff-Com: -0.162D-02 0.235D-02 0.133D-01 0.622D-02-0.860D-01-0.106D+00
 Coeff-Com:  0.330D+00 0.843D+00
 Coeff:     -0.702D-05 0.150D-04 0.254D-04 0.293D-05-0.995D-04-0.415D-03
 Coeff:     -0.162D-02 0.235D-02 0.133D-01 0.622D-02-0.860D-01-0.106D+00
 Coeff:      0.330D+00 0.843D+00
 Gap=     0.252 Goal=   None    Shift=    0.000
 RMSDP=1.58D-07 MaxDP=2.01D-05 DE=-3.06D-10 OVMax= 5.77D-06

 Cycle  15  Pass 1  IDiag  1:
 RMSU=  3.84D-08    CP:  1.03D+00  1.77D+00  8.49D-01  7.04D-01  1.53D+00
                    CP:  1.15D+00  1.44D+00  1.47D+00  1.16D+00  1.56D+00
                    CP:  1.81D+00  2.07D+00  1.81D+00  1.17D+00
 E= -1419.32312431537     Delta-E=       -0.000000000189 Rises=F Damp=F
 DIIS: error= 9.40D-08 at cycle  15 NSaved=  15.
 NSaved=15 IEnMin=15 EnMin= -1419.32312431537     IErMin=15 ErrMin= 9.40D-08
 ErrMax= 9.40D-08  0.00D+00 EMaxC= 1.00D-01 BMatC= 3.43D-12 BMatP= 2.46D-11
 IDIUse=1 WtCom= 1.00D+00 WtEn= 0.00D+00
 Coeff-Com:  0.150D-05-0.332D-05 0.262D-06 0.647D-05 0.878D-04-0.249D-04
 Coeff-Com: -0.867D-03-0.806D-03 0.357D-02 0.884D-02 0.102D-01-0.598D-01
 Coeff-Com: -0.126D+00 0.232D+00 0.933D+00
 Coeff:      0.150D-05-0.332D-05 0.262D-06 0.647D-05 0.878D-04-0.249D-04
 Coeff:     -0.867D-03-0.806D-03 0.357D-02 0.884D-02 0.102D-01-0.598D-01
 Coeff:     -0.126D+00 0.232D+00 0.933D+00
 Gap=     0.252 Goal=   None    Shift=    0.000
 RMSDP=9.66D-08 MaxDP=8.07D-06 DE=-1.89D-10 OVMax= 3.01D-06

 Cycle  16  Pass 1  IDiag  1:
 RMSU=  2.13D-08    CP:  1.03D+00  1.77D+00  8.49D-01  7.04D-01  1.53D+00
                    CP:  1.15D+00  1.44D+00  1.47D+00  1.15D+00  1.57D+00
                    CP:  1.82D+00  2.14D+00  1.94D+00  1.41D+00  1.33D+00
 E= -1419.32312431532     Delta-E=        0.000000000049 Rises=F Damp=F
 DIIS: error= 2.25D-08 at cycle  16 NSaved=  16.
 NSaved=16 IEnMin=15 EnMin= -1419.32312431537     IErMin=16 ErrMin= 2.25D-08
 ErrMax= 2.25D-08  0.00D+00 EMaxC= 1.00D-01 BMatC= 6.70D-13 BMatP= 3.43D-12
 IDIUse=1 WtCom= 1.00D+00 WtEn= 0.00D+00
 Coeff-Com:  0.838D-06-0.184D-05-0.202D-05 0.301D-05 0.367D-04 0.373D-04
 Coeff-Com: -0.801D-04-0.516D-03-0.357D-03 0.199D-02 0.137D-01-0.586D-02
 Coeff-Com: -0.793D-01-0.498D-01 0.292D+00 0.828D+00
 Coeff:      0.838D-06-0.184D-05-0.202D-05 0.301D-05 0.367D-04 0.373D-04
 Coeff:     -0.801D-04-0.516D-03-0.357D-03 0.199D-02 0.137D-01-0.586D-02
 Coeff:     -0.793D-01-0.498D-01 0.292D+00 0.828D+00
 Gap=     0.252 Goal=   None    Shift=    0.000
 RMSDP=3.03D-08 MaxDP=2.53D-06 DE= 4.91D-11 OVMax= 1.03D-06

 Cycle  17  Pass 1  IDiag  1:
 RMSU=  1.70D-08    CP:  1.03D+00  1.77D+00  8.49D-01  7.04D-01  1.53D+00
                    CP:  1.15D+00  1.44D+00  1.47D+00  1.15D+00  1.57D+00
                    CP:  1.82D+00  2.16D+00  1.97D+00  1.47D+00  1.61D+00
                    CP:  1.58D+00
 E= -1419.32312431523     Delta-E=        0.000000000086 Rises=F Damp=F
 DIIS: error= 1.47D-08 at cycle  17 NSaved=  17.
 NSaved=17 IEnMin=15 EnMin= -1419.32312431537     IErMin=17 ErrMin= 1.47D-08
 ErrMax= 1.47D-08  0.00D+00 EMaxC= 1.00D-01 BMatC= 1.07D-13 BMatP= 6.70D-13
 IDIUse=1 WtCom= 1.00D+00 WtEn= 0.00D+00
 Coeff-Com: -0.837D-07 0.196D-06-0.652D-06-0.739D-06-0.747D-05 0.142D-04
 Coeff-Com:  0.148D-03 0.148D-04-0.807D-03-0.133D-02 0.168D-02 0.102D-01
 Coeff-Com:  0.385D-02-0.623D-01-0.722D-01 0.203D+00 0.917D+00
 Coeff:     -0.837D-07 0.196D-06-0.652D-06-0.739D-06-0.747D-05 0.142D-04
 Coeff:      0.148D-03 0.148D-04-0.807D-03-0.133D-02 0.168D-02 0.102D-01
 Coeff:      0.385D-02-0.623D-01-0.722D-01 0.203D+00 0.917D+00
 Gap=     0.252 Goal=   None    Shift=    0.000
 RMSDP=3.14D-08 MaxDP=2.31D-06 DE= 8.64D-11 OVMax= 6.25D-07

 Cycle  18  Pass 1  IDiag  1:
 RMSU=  1.53D-08    CP:  1.03D+00  1.77D+00  8.49D-01  7.04D-01  1.53D+00
                    CP:  1.15D+00  1.44D+00  1.47D+00  1.15D+00  1.57D+00
                    CP:  1.82D+00  2.16D+00  1.98D+00  1.51D+00  1.83D+00
                    CP:  2.28D+00  2.13D+00
 E= -1419.32312431535     Delta-E=       -0.000000000119 Rises=F Damp=F
 DIIS: error= 8.77D-09 at cycle  18 NSaved=  18.
 NSaved=18 IEnMin=15 EnMin= -1419.32312431537     IErMin=18 ErrMin= 8.77D-09
 ErrMax= 8.77D-09  0.00D+00 EMaxC= 1.00D-01 BMatC= 4.23D-14 BMatP= 1.07D-13
 IDIUse=1 WtCom= 1.00D+00 WtEn= 0.00D+00
 Coeff-Com: -0.695D-07 0.158D-06-0.516D-07-0.951D-06-0.510D-05-0.929D-06
 Coeff-Com:  0.503D-04 0.695D-04-0.168D-03-0.598D-03-0.123D-02 0.365D-02
 Coeff-Com:  0.116D-01-0.140D-01-0.545D-01-0.687D-01 0.243D+00 0.881D+00
 Coeff:     -0.695D-07 0.158D-06-0.516D-07-0.951D-06-0.510D-05-0.929D-06
 Coeff:      0.503D-04 0.695D-04-0.168D-03-0.598D-03-0.123D-02 0.365D-02
 Coeff:      0.116D-01-0.140D-01-0.545D-01-0.687D-01 0.243D+00 0.881D+00
 Gap=     0.252 Goal=   None    Shift=    0.000
 RMSDP=5.04D-08 MaxDP=3.88D-06 DE=-1.19D-10 OVMax= 3.58D-07

 Cycle  19  Pass 1  IDiag  1:
 RMSU=  2.63D-08    CP:  1.03D+00  1.77D+00  8.49D-01  7.04D-01  1.53D+00
                    CP:  1.15D+00  1.44D+00  1.47D+00  1.15D+00  1.57D+00
                    CP:  1.82D+00  2.16D+00  2.01D+00  1.59D+00  2.03D+00
                    CP:  3.00D+00  3.00D+00  2.29D+00
 E= -1419.32312431513     Delta-E=        0.000000000216 Rises=F Damp=F
 DIIS: error= 8.43D-09 at cycle  19 NSaved=  19.
 NSaved=19 IEnMin=15 EnMin= -1419.32312431537     IErMin=19 ErrMin= 8.43D-09
 ErrMax= 8.43D-09  0.00D+00 EMaxC= 1.00D-01 BMatC= 3.80D-14 BMatP= 4.23D-14
 IDIUse=1 WtCom= 1.00D+00 WtEn= 0.00D+00
 Coeff-Com: -0.499D-07 0.112D-06-0.368D-07-0.663D-06-0.348D-05-0.863D-06
 Coeff-Com:  0.349D-04 0.474D-04-0.118D-03-0.424D-03-0.841D-03 0.255D-02
 Coeff-Com:  0.792D-02-0.102D-01-0.371D-01-0.448D-01 0.165D+00 0.577D+00
 Coeff-Com:  0.340D+00
 Coeff:     -0.499D-07 0.112D-06-0.368D-07-0.663D-06-0.348D-05-0.863D-06
 Coeff:      0.349D-04 0.474D-04-0.118D-03-0.424D-03-0.841D-03 0.255D-02
 Coeff:      0.792D-02-0.102D-01-0.371D-01-0.448D-01 0.165D+00 0.577D+00
 Coeff:      0.340D+00
 Gap=     0.252 Goal=   None    Shift=    0.000
 RMSDP=2.30D-08 MaxDP=2.03D-06 DE= 2.16D-10 OVMax= 6.60D-08

 Cycle  20  Pass 1  IDiag  1:
 RMSU=  1.01D-08    CP:  1.03D+00  1.77D+00  8.49D-01  7.04D-01  1.53D+00
                    CP:  1.15D+00  1.44D+00  1.47D+00  1.15D+00  1.57D+00
                    CP:  1.81D+00  2.16D+00  2.02D+00  1.63D+00  2.09D+00
                    CP:  3.00D+00  3.00D+00  2.78D+00  1.68D+00
 E= -1419.32312431521     Delta-E=       -0.000000000075 Rises=F Damp=F
 DIIS: error= 9.24D-09 at cycle  20 NSaved=  20.
 NSaved=20 IEnMin=15 EnMin= -1419.32312431537     IErMin=19 ErrMin= 8.43D-09
 ErrMax= 9.24D-09  0.00D+00 EMaxC= 1.00D-01 BMatC= 4.83D-14 BMatP= 3.80D-14
 IDIUse=1 WtCom= 1.00D+00 WtEn= 0.00D+00
 Large coefficients: NSaved= 20 BigCof=    0.00 CofMax=   10.00 Det=-4.52D-15
 Inversion failed.  Reducing to 19 matrices.
 Large coefficients: NSaved= 19 BigCof=    0.00 CofMax=   10.00 Det=-4.53D-15
 Inversion failed.  Reducing to 18 matrices.
 Large coefficients: NSaved= 18 BigCof=    0.00 CofMax=   10.00 Det=-4.54D-15
 Inversion failed.  Reducing to 17 matrices.
 Large coefficients: NSaved= 17 BigCof=    0.00 CofMax=   10.00 Det=-4.64D-15
 Inversion failed.  Reducing to 16 matrices.
 Large coefficients: NSaved= 16 BigCof=    0.00 CofMax=   10.00 Det=-4.64D-15
 Inversion failed.  Reducing to 15 matrices.
 Coeff-Com: -0.793D-06 0.139D-04 0.157D-04-0.862D-04-0.255D-03-0.353D-03
 Coeff-Com:  0.196D-02 0.482D-02-0.969D-02-0.268D-01-0.332D-01 0.136D+00
 Coeff-Com:  0.541D+00 0.582D+00-0.196D+00
 Coeff:     -0.793D-06 0.139D-04 0.157D-04-0.862D-04-0.255D-03-0.353D-03
 Coeff:      0.196D-02 0.482D-02-0.969D-02-0.268D-01-0.332D-01 0.136D+00
 Coeff:      0.541D+00 0.582D+00-0.196D+00
 Gap=     0.252 Goal=   None    Shift=    0.000
 RMSDP=5.17D-09 MaxDP=4.70D-07 DE=-7.46D-11 OVMax= 5.10D-09

 Error on total polarization charges =  0.02061
 SCF Done:  E(RCAM-B3LYP) =  -1419.32312432     A.U. after   20 cycles
            NFock= 20  Conv=0.52D-08     -V/T= 2.0041
 KE= 1.413481934812D+03 PE=-9.943362104751D+03 EE= 3.778629938441D+03
 Leave Link  502 at Mon Feb 17 09:29:01 2020, MaxMem=  6710886400 cpu:     14651.8
 (Enter /opt/sys/apps/gaussian09/D.01/g09/l801.exe)
 DoSCS=F DFT=T ScalE2(SS,OS)=  1.000000  1.000000
 ExpMin= 3.60D-02 ExpMax= 8.59D+03 ExpMxC= 1.30D+03 IAcc=3 IRadAn=         5 AccDes= 0.00D+00
 HarFok:  IExCor=  205 AccDes= 0.00D+00 IRadAn=         5 IDoV=-2 UseB2=F ITyADJ=14
 ICtDFT= 12500011 ScaDFX=  1.000000  1.000000  1.000000  1.000000
 Largest valence mixing into a core orbital is  4.58D-05
 Largest core mixing into a valence orbital is  1.03D-05
 Range of M.O.s used for correlation:    34   926
 NBasis=   943 NAE=   118 NBE=   118 NFC=    33 NFV=     0
 NROrb=    893 NOA=    85 NOB=    85 NVA=   808 NVB=   808

 **** Warning!!: The largest alpha MO coefficient is  0.88031500D+02

 Leave Link  801 at Mon Feb 17 09:29:02 2020, MaxMem=  6710886400 cpu:        12.5
 (Enter /opt/sys/apps/gaussian09/D.01/g09/l914.exe)
 RHF ground state
 MDV=  6710886400 DFT=T DoStab=F Mixed=T DoRPA=T DoScal=F NonHer=T
 Would need an additional        591468400000 words for in-memory AO integral storage.
 NEqPCM:  Using non-equilibrium solvation (IEInf=1, Eps=  24.8520, EpsInf=   1.8526)
 Inv3:  Mode=1 IEnd=    60588108.
 Iteration    1 A*A^-1 deviation from unit magnitude is 7.44D-15 for   4472.
 Iteration    1 A*A^-1 deviation from orthogonality  is 5.22D-15 for   4490   4369.
 Iteration    1 A^-1*A deviation from unit magnitude is 7.44D-15 for   4472.
 Iteration    1 A^-1*A deviation from orthogonality  is 3.56D-15 for   3758   2591.
 Making orbital integer symmetry assigments:
    40 initial guesses have been made.
 Convergence on wavefunction:    0.000001000000000
 Davidson Disk Diagonalization:  ConvIn= 1.00D-06 SkipCon=T Conv= 1.00D-06.
 Max sub-space:   200 roots to seek:    40 dimension of matrix:       137360
 Iteration     1 Dimension    40 NMult     0 NNew     40
 CISAX will form    40 AO SS matrices at one time.
 NMat=    40 NSing=    40 JSym2X= 0.
 FoFJK:  IHMeth= 1 ICntrl=       0 DoSepK=T KAlg= 0 I1Cent=   0 FoldK=F
 IRaf=         1 NMat=  80 IRICut=       1 DoRegI=T DoRafI=F ISym2E= 0.
 New state      3 was old state     14
 New state      4 was old state      9
 New state      5 was old state      4
 New state      6 was old state      3
 New state      8 was old state     10
 New state      9 was old state      5
 New state     10 was old state     22
 Excitation Energies [eV] at current iteration:
 Root      1 :     3.712744027910445
 Root      2 :     4.509294383888263
 Root      3 :     5.362529958541463
 Root      4 :     5.466637987700315
 Root      5 :     5.538051347304905
 Root      6 :     5.561260321835845
 Root      7 :     5.770004922228027
 Root      8 :     5.994540852436478
 Root      9 :     6.223129319774388
 Root     10 :     6.262226110964666
 Root     11 :     6.465836608452471
 Root     12 :     6.557817021475961
 Root     13 :     6.585627816141620
 Root     14 :     6.687826387965125
 Root     15 :     6.730771442354513
 Root     16 :     6.775619322605531
 Root     17 :     6.821428129887088
 Root     18 :     6.939933999097086
 Root     19 :     7.114773390218594
 Root     20 :     7.213034780026629
 Root     21 :     7.281100646040489
 Root     22 :     7.349577170845549
 Root     23 :     7.402607102731534
 Root     24 :     7.465596018960344
 Root     25 :     7.518106506509495
 Root     26 :     7.576864327160544
 Root     27 :     7.740042444808482
 Root     28 :     7.763958029332901
 Root     29 :     7.870598020228882
 Root     30 :     7.902729500074076
 Root     31 :     7.999229329920492
 Root     32 :     8.011094084721941
 Root     33 :     8.064665061162215
 Root     34 :     8.123395073880246
 Root     35 :     8.230060878609256
 Root     36 :     8.266110581524083
 Root     37 :     8.305870454982319
 Root     38 :     8.443095519326016
 Root     39 :     8.452892344018986
 Root     40 :     8.593263253667851
 Iteration     2 Dimension    60 NMult    40 NNew     20
 CISAX will form    20 AO SS matrices at one time.
 NMat=    20 NSing=    20 JSym2X= 0.
 Root      1 not converged, maximum delta is    0.067469080320277
 Root      2 not converged, maximum delta is    0.034335741120125
 New state      3 was old state      5
 Root      3 not converged, maximum delta is    0.372581390380135
 New state      4 was old state      3
 Root      4 not converged, maximum delta is    0.225994093725419
 New state      5 was old state      4
 Root      5 not converged, maximum delta is    0.366949853695648
 New state      6 was old state      8
 Root      6 not converged, maximum delta is    0.346135930164414
 New state      7 was old state      6
 Root      7 not converged, maximum delta is    0.230604483889636
 New state      8 was old state     10
 Root      8 not converged, maximum delta is    0.238696224184558
 New state      9 was old state      7
 Root      9 not converged, maximum delta is    0.145135065593552
 New state     10 was old state      9
 Root     10 not converged, maximum delta is    0.111960988811337
 Excitation Energies [eV] at current iteration:
 Root      1 :     3.064003247480491   Change is   -0.648740780429954
 Root      2 :     4.008776934444268   Change is   -0.500517449443995
 Root      3 :     4.848935417775847   Change is   -0.689115929529058
 Root      4 :     4.886500767752013   Change is   -0.476029190789449
 Root      5 :     5.136424080314168   Change is   -0.330213907386147
 Root      6 :     5.199632046099312   Change is   -0.794908806337167
 Root      7 :     5.452745958569309   Change is   -0.108514363266536
 Root      8 :     5.565823617301701   Change is   -0.696402493662965
 Root      9 :     5.631552744696553   Change is   -0.138452177531473
 Root     10 :     5.828162553744756   Change is   -0.394966766029633
 Iteration     3 Dimension    80 NMult    60 NNew     20
 CISAX will form    20 AO SS matrices at one time.
 NMat=    20 NSing=    20 JSym2X= 0.
 Root      1 not converged, maximum delta is    0.018793161285093
 Root      2 not converged, maximum delta is    0.008976465500979
 Root      3 not converged, maximum delta is    0.032212850831577
 Root      4 not converged, maximum delta is    0.047128663481357
 Root      5 not converged, maximum delta is    0.033451407530946
 Root      6 not converged, maximum delta is    0.059054078663902
 Root      7 not converged, maximum delta is    0.122713482470235
 Root      8 not converged, maximum delta is    0.075361425869421
 Root      9 not converged, maximum delta is    0.114612071273758
 Root     10 not converged, maximum delta is    0.355517115736182
 Excitation Energies [eV] at current iteration:
 Root      1 :     3.014024489280119   Change is   -0.049978758200372
 Root      2 :     3.978376050937062   Change is   -0.030400883507205
 Root      3 :     4.781329130419577   Change is   -0.067606287356270
 Root      4 :     4.804077067717058   Change is   -0.082423700034955
 Root      5 :     5.114115986216769   Change is   -0.022308094097399
 Root      6 :     5.151871059327528   Change is   -0.047760986771785
 Root      7 :     5.423971366983435   Change is   -0.028774591585874
 Root      8 :     5.511995014680624   Change is   -0.053828602621078
 Root      9 :     5.611860741825092   Change is   -0.019692002871461
 Root     10 :     5.779996015039663   Change is   -0.048166538705093
 Iteration     4 Dimension   100 NMult    80 NNew     20
 CISAX will form    20 AO SS matrices at one time.
 NMat=    20 NSing=    20 JSym2X= 0.
 Root      1 not converged, maximum delta is    0.006678043402497
 Root      2 not converged, maximum delta is    0.003438454608155
 Root      3 not converged, maximum delta is    0.022024611803366
 Root      4 not converged, maximum delta is    0.024003491465245
 Root      5 not converged, maximum delta is    0.050507651439755
 Root      6 not converged, maximum delta is    0.056935811362133
 Root      7 not converged, maximum delta is    0.402827400954898
 Root      8 not converged, maximum delta is    0.625565650619766
 Root      9 not converged, maximum delta is    0.569947916050255
 Root     10 not converged, maximum delta is    0.385825309087278
 Excitation Energies [eV] at current iteration:
 Root      1 :     3.008180404417014   Change is   -0.005844084863105
 Root      2 :     3.974170214995159   Change is   -0.004205835941903
 Root      3 :     4.768816447867929   Change is   -0.012512682551648
 Root      4 :     4.791892227167041   Change is   -0.012184840550017
 Root      5 :     5.108972622453282   Change is   -0.005143363763486
 Root      6 :     5.142677678604932   Change is   -0.009193380722596
 Root      7 :     5.282243103593698   Change is   -0.141728263389737
 Root      8 :     5.462000643951610   Change is   -0.049994370729014
 Root      9 :     5.525985752901653   Change is   -0.085874988923439
 Root     10 :     5.627491494268960   Change is   -0.152504520770703
 Iteration     5 Dimension   120 NMult   100 NNew     20
 CISAX will form    20 AO SS matrices at one time.
 NMat=    20 NSing=    20 JSym2X= 0.
 Root      1 not converged, maximum delta is    0.001247019340768
 Root      2 not converged, maximum delta is    0.001464715742143
 Root      3 not converged, maximum delta is    0.005654365824079
 Root      4 not converged, maximum delta is    0.003981979752655
 Root      5 not converged, maximum delta is    0.037219046225606
 Root      6 not converged, maximum delta is    0.049542047866126
 Root      7 not converged, maximum delta is    0.096950999935973
 Root      8 not converged, maximum delta is    0.048787571817941
 Root      9 not converged, maximum delta is    0.045152934087628
 Root     10 not converged, maximum delta is    0.024510610649655
 Excitation Energies [eV] at current iteration:
 Root      1 :     3.007606078660600   Change is   -0.000574325756414
 Root      2 :     3.973873461741097   Change is   -0.000296753254062
 Root      3 :     4.767124788877339   Change is   -0.001691658990589
 Root      4 :     4.790361178581490   Change is   -0.001531048585551
 Root      5 :     5.107309458376796   Change is   -0.001663164076486
 Root      6 :     5.138473775183853   Change is   -0.004203903421079
 Root      7 :     5.228436448379150   Change is   -0.053806655214548
 Root      8 :     5.454686101520138   Change is   -0.007314542431472
 Root      9 :     5.521395011174524   Change is   -0.004590741727129
 Root     10 :     5.624321836304971   Change is   -0.003169657963989
 Iteration     6 Dimension   140 NMult   120 NNew     20
 CISAX will form    20 AO SS matrices at one time.
 NMat=    20 NSing=    20 JSym2X= 0.
 Root      1 not converged, maximum delta is    0.000289328734583
 Root      2 not converged, maximum delta is    0.000213973101904
 Root      3 not converged, maximum delta is    0.004889361576613
 Root      4 not converged, maximum delta is    0.001173963991652
 Root      5 not converged, maximum delta is    0.011819143490775
 Root      6 not converged, maximum delta is    0.011653718651546
 Root      7 not converged, maximum delta is    0.018557193137654
 Root      8 not converged, maximum delta is    0.015538717160240
 Root      9 not converged, maximum delta is    0.018115092722011
 Root     10 not converged, maximum delta is    0.064047385976468
 Excitation Energies [eV] at current iteration:
 Root      1 :     3.007569156703238   Change is   -0.000036921957362
 Root      2 :     3.973848889735519   Change is   -0.000024572005577
 Root      3 :     4.766818115400086   Change is   -0.000306673477254
 Root      4 :     4.790183158898008   Change is   -0.000178019683481
 Root      5 :     5.106713231465356   Change is   -0.000596226911440
 Root      6 :     5.137373384295563   Change is   -0.001100390888291
 Root      7 :     5.219457781115227   Change is   -0.008978667263924
 Root      8 :     5.453098395772045   Change is   -0.001587705748093
 Root      9 :     5.520096573902214   Change is   -0.001298437272309
 Root     10 :     5.619686636397393   Change is   -0.004635199907578
 Iteration     7 Dimension   160 NMult   140 NNew     20
 CISAX will form    20 AO SS matrices at one time.
 NMat=    20 NSing=    20 JSym2X= 0.
 Root      1 not converged, maximum delta is    0.000056922351332
 Root      2 not converged, maximum delta is    0.000089458833331
 Root      3 not converged, maximum delta is    0.002001791874419
 Root      4 not converged, maximum delta is    0.000426680303773
 Root      5 not converged, maximum delta is    0.007092763319992
 Root      6 not converged, maximum delta is    0.004972191699215
 Root      7 not converged, maximum delta is    0.012188981662087
 Root      8 not converged, maximum delta is    0.504219977028855
 No map to state      9
 New state     10 was old state      9
 Root     10 not converged, maximum delta is    0.073599232104922
 Excitation Energies [eV] at current iteration:
 Root      1 :     3.007566806249128   Change is   -0.000002350454110
 Root      2 :     3.973847234248492   Change is   -0.000001655487027
 Root      3 :     4.766762900929621   Change is   -0.000055214470466
 Root      4 :     4.790160282909874   Change is   -0.000022875988135
 Root      5 :     5.106491084288859   Change is   -0.000222147176497
 Root      6 :     5.137183251819347   Change is   -0.000190132476215
 Root      7 :     5.218043892876603   Change is   -0.001413888238625
 Root      8 :     5.403177758028945   Change is   -0.049920637743100
 Root      9 :     5.454559939696538
 Root     10 :     5.521327619347741   Change is    0.001231045445527
 Iteration     8 Dimension   180 NMult   160 NNew     20
 CISAX will form    20 AO SS matrices at one time.
 NMat=    20 NSing=    20 JSym2X= 0.
 Root      1 not converged, maximum delta is    0.000005918746823
 Root      2 not converged, maximum delta is    0.000014348848370
 Root      3 not converged, maximum delta is    0.000304418541399
 Root      4 not converged, maximum delta is    0.000071849739717
 Root      5 not converged, maximum delta is    0.001368291299601
 Root      6 not converged, maximum delta is    0.001054987086547
 Root      7 not converged, maximum delta is    0.002622897707045
 Root      8 not converged, maximum delta is    0.031958935726244
 Root      9 not converged, maximum delta is    0.039604305027016
 Root     10 not converged, maximum delta is    0.013463361931775
 Excitation Energies [eV] at current iteration:
 Root      1 :     3.007566716453515   Change is   -0.000000089795613
 Root      2 :     3.973847135008587   Change is   -0.000000099239905
 Root      3 :     4.766755467044987   Change is   -0.000007433884634
 Root      4 :     4.790158389049357   Change is   -0.000001893860516
 Root      5 :     5.106450380572086   Change is   -0.000040703716773
 Root      6 :     5.137154374009687   Change is   -0.000028877809660
 Root      7 :     5.217844656790675   Change is   -0.000199236085928
 Root      8 :     5.364866861705383   Change is   -0.038310896323562
 Root      9 :     5.453736496464641   Change is   -0.000823443231897
 Root     10 :     5.520809569697756   Change is   -0.000518049649985
 Iteration     9 Dimension   200 NMult   180 NNew     20
 CISAX will form    20 AO SS matrices at one time.
 NMat=    20 NSing=    20 JSym2X= 0.
 Root      1 not converged, maximum delta is    0.000001856189386
 Root      2 not converged, maximum delta is    0.000002975516916
 Root      3 not converged, maximum delta is    0.000123628493404
 Root      4 not converged, maximum delta is    0.000020090610487
 Root      5 not converged, maximum delta is    0.000221750962565
 Root      6 not converged, maximum delta is    0.000098956765823
 Root      7 not converged, maximum delta is    0.000377829268917
 Root      8 not converged, maximum delta is    0.006605673554496
 Root      9 not converged, maximum delta is    0.002204628422902
 Root     10 not converged, maximum delta is    0.002256653819635
 Excitation Energies [eV] at current iteration:
 Root      1 :     3.007566711564471   Change is   -0.000000004889044
 Root      2 :     3.973847129086998   Change is   -0.000000005921589
 Root      3 :     4.766754643269693   Change is   -0.000000823775294
 Root      4 :     4.790158274448636   Change is   -0.000000114600721
 Root      5 :     5.106445687602721   Change is   -0.000004692969364
 Root      6 :     5.137151604039569   Change is   -0.000002769970118
 Root      7 :     5.217823692938806   Change is   -0.000020963851868
 Root      8 :     5.360974996698942   Change is   -0.003891865006440
 Root      9 :     5.453684612784190   Change is   -0.000051883680452
 Root     10 :     5.520737143894914   Change is   -0.000072425802842
 Davidson failed to converge within maximum sub-space dimensions.
  Restart with updated initial guess:
 Iteration     1 Dimension    40 NMult   200 NNew     40
 CISAX will form    40 AO SS matrices at one time.
 NMat=    40 NSing=    40 JSym2X= 0.
 Excitation Energies [eV] at current iteration:
 Root      1 :     3.007566711495098
 Root      2 :     3.973847130359609
 Root      3 :     4.766754566291445
 Root      4 :     4.790158266763740
 Root      5 :     5.106445278667298
 Root      6 :     5.137151369691164
 Root      7 :     5.217821680146461
 Root      8 :     5.360577487129968
 Root      9 :     5.453679115487151
 Root     10 :     5.520729224207793
 Iteration     2 Dimension    60 NMult   240 NNew     20
 CISAX will form    20 AO SS matrices at one time.
 NMat=    20 NSing=    20 JSym2X= 0.
 Root      1 has converged.
 Root      2 has converged.
 Root      3 not converged, maximum delta is    0.000017888027322
 Root      4 not converged, maximum delta is    0.000003268241077
 Root      5 not converged, maximum delta is    0.000016656451399
 Root      6 not converged, maximum delta is    0.000015797715885
 Root      7 not converged, maximum delta is    0.000080160148015
 Root      8 not converged, maximum delta is    0.000746243082228
 Root      9 not converged, maximum delta is    0.000097665474797
 Root     10 not converged, maximum delta is    0.000167329773339
 Excitation Energies [eV] at current iteration:
 Root      1 :     3.007566711479272   Change is   -0.000000000015826
 Root      2 :     3.973847130333729   Change is   -0.000000000025880
 Root      3 :     4.766754552151093   Change is   -0.000000014140351
 Root      4 :     4.790158265632987   Change is   -0.000000001130753
 Root      5 :     5.106445208865331   Change is   -0.000000069801967
 Root      6 :     5.137151326218308   Change is   -0.000000043472856
 Root      7 :     5.217821205689612   Change is   -0.000000474456849
 Root      8 :     5.360483367049590   Change is   -0.000094120080377
 Root      9 :     5.453677745721432   Change is   -0.000001369765719
 Root     10 :     5.520727537686602   Change is   -0.000001686521190
 Iteration     3 Dimension    76 NMult   260 NNew     16
 CISAX will form    16 AO SS matrices at one time.
 NMat=    16 NSing=    16 JSym2X= 0.
 Root      1 has converged.
 Root      2 has converged.
 Root      3 not converged, maximum delta is    0.000009264264020
 Root      4 not converged, maximum delta is    0.000001507089129
 Root      5 not converged, maximum delta is    0.000007376722058
 Root      6 not converged, maximum delta is    0.000009436382366
 Root      7 not converged, maximum delta is    0.000050640277217
 Root      8 not converged, maximum delta is    0.000765859847501
 Root      9 not converged, maximum delta is    0.000087008464204
 Root     10 not converged, maximum delta is    0.000133021636664
 Excitation Energies [eV] at current iteration:
 Root      1 :     3.007566711503216   Change is    0.000000000023944
 Root      2 :     3.973847130308305   Change is   -0.000000000025425
 Root      3 :     4.766754549788959   Change is   -0.000000002362135
 Root      4 :     4.790158265461506   Change is   -0.000000000171480
 Root      5 :     5.106445197312319   Change is   -0.000000011553012
 Root      6 :     5.137151318659216   Change is   -0.000000007559091
 Root      7 :     5.217821107838385   Change is   -0.000000097851227
 Root      8 :     5.360465179887814   Change is   -0.000018187161777
 Root      9 :     5.453677451914293   Change is   -0.000000293807138
 Root     10 :     5.520727126936354   Change is   -0.000000410750248
 Iteration     4 Dimension    92 NMult   276 NNew     16
 CISAX will form    16 AO SS matrices at one time.
 NMat=    16 NSing=    16 JSym2X= 0.
 Root      1 has converged.
 Root      2 has converged.
 Root      3 not converged, maximum delta is    0.000002774862467
 Root      4 has converged.
 Root      5 not converged, maximum delta is    0.000004955430148
 Root      6 not converged, maximum delta is    0.000002703056673
 Root      7 not converged, maximum delta is    0.000024850111193
 Root      8 not converged, maximum delta is    0.000414109612177
 Root      9 not converged, maximum delta is    0.000047397900126
 Root     10 not converged, maximum delta is    0.000073833094368
 Excitation Energies [eV] at current iteration:
 Root      1 :     3.007566711528171   Change is    0.000000000024955
 Root      2 :     3.973847130306401   Change is   -0.000000000001903
 Root      3 :     4.766754549414393   Change is   -0.000000000374566
 Root      4 :     4.790158265420490   Change is   -0.000000000041016
 Root      5 :     5.106445194972766   Change is   -0.000000002339554
 Root      6 :     5.137151317616058   Change is   -0.000000001043158
 Root      7 :     5.217821091406798   Change is   -0.000000016431588
 Root      8 :     5.360461255861106   Change is   -0.000003924026707
 Root      9 :     5.453677394419825   Change is   -0.000000057494469
 Root     10 :     5.520726990805902   Change is   -0.000000136130452
 Iteration     5 Dimension   106 NMult   292 NNew     14
 CISAX will form    14 AO SS matrices at one time.
 NMat=    14 NSing=    14 JSym2X= 0.
 Root      1 has converged.
 Root      2 has converged.
 Root      3 has converged.
 Root      4 has converged.
 Root      5 not converged, maximum delta is    0.000003918762194
 Root      6 not converged, maximum delta is    0.000001922128133
 Root      7 not converged, maximum delta is    0.000006192245994
 Root      8 not converged, maximum delta is    0.000135992843036
 Root      9 not converged, maximum delta is    0.000018711443015
 Root     10 not converged, maximum delta is    0.000037453987277
 Excitation Energies [eV] at current iteration:
 Root      1 :     3.007566711517949   Change is   -0.000000000010223
 Root      2 :     3.973847130307187   Change is    0.000000000000786
 Root      3 :     4.766754549327542   Change is   -0.000000000086850
 Root      4 :     4.790158265424952   Change is    0.000000000004462
 Root      5 :     5.106445194357454   Change is   -0.000000000615311
 Root      6 :     5.137151317377252   Change is   -0.000000000238806
 Root      7 :     5.217821087942729   Change is   -0.000000003464067
 Root      8 :     5.360460543345003   Change is   -0.000000712516102
 Root      9 :     5.453677383354407   Change is   -0.000000011065418
 Root     10 :     5.520726946942178   Change is   -0.000000043863725
 Iteration     6 Dimension   118 NMult   306 NNew     12
 CISAX will form    12 AO SS matrices at one time.
 NMat=    12 NSing=    12 JSym2X= 0.
 Root      1 has converged.
 Root      2 has converged.
 Root      3 has converged.
 Root      4 has converged.
 Root      5 not converged, maximum delta is    0.000003046904605
 Root      6 not converged, maximum delta is    0.000001871253428
 Root      7 not converged, maximum delta is    0.000003659322321
 Root      8 not converged, maximum delta is    0.000029306736569
 Root      9 not converged, maximum delta is    0.000008750543625
 Root     10 not converged, maximum delta is    0.000033896606375
 Excitation Energies [eV] at current iteration:
 Root      1 :     3.007566711535743   Change is    0.000000000017794
 Root      2 :     3.973847130303526   Change is   -0.000000000003662
 Root      3 :     4.766754549282012   Change is   -0.000000000045530
 Root      4 :     4.790158265423596   Change is   -0.000000000001356
 Root      5 :     5.106445194179177   Change is   -0.000000000178278
 Root      6 :     5.137151317314889   Change is   -0.000000000062362
 Root      7 :     5.217821087331446   Change is   -0.000000000611283
 Root      8 :     5.360460431829148   Change is   -0.000000111515856
 Root      9 :     5.453677380754391   Change is   -0.000000002600016
 Root     10 :     5.520726930783129   Change is   -0.000000016159049
 Iteration     7 Dimension   130 NMult   318 NNew     12
 CISAX will form    12 AO SS matrices at one time.
 NMat=    12 NSing=    12 JSym2X= 0.
 Root      1 has converged.
 Root      2 has converged.
 Root      3 has converged.
 Root      4 has converged.
 Root      5 not converged, maximum delta is    0.000003553471152
 Root      6 not converged, maximum delta is    0.000002249828836
 Root      7 not converged, maximum delta is    0.000005215703878
 Root      8 not converged, maximum delta is    0.000018018430963
 Root      9 not converged, maximum delta is    0.000018023687235
 Root     10 not converged, maximum delta is    0.000077541298318
 Excitation Energies [eV] at current iteration:
 Root      1 :     3.007566711518824   Change is   -0.000000000016920
 Root      2 :     3.973847130298271   Change is   -0.000000000005254
 Root      3 :     4.766754549286290   Change is    0.000000000004277
 Root      4 :     4.790158265419426   Change is   -0.000000000004171
 Root      5 :     5.106445194099826   Change is   -0.000000000079351
 Root      6 :     5.137151317287541   Change is   -0.000000000027348
 Root      7 :     5.217821087155476   Change is   -0.000000000175970
 Root      8 :     5.360460411595232   Change is   -0.000000020233916
 Root      9 :     5.453677379514303   Change is   -0.000000001240089
 Root     10 :     5.520726916539277   Change is   -0.000000014243851
 Iteration     8 Dimension   142 NMult   330 NNew     12
 CISAX will form    12 AO SS matrices at one time.
 NMat=    12 NSing=    12 JSym2X= 0.
 Root      1 has converged.
 Root      2 has converged.
 Root      3 has converged.
 Root      4 has converged.
 Root      5 not converged, maximum delta is    0.000002012231665
 Root      6 not converged, maximum delta is    0.000001460189360
 Root      7 not converged, maximum delta is    0.000003944409831
 Root      8 not converged, maximum delta is    0.000021335116994
 Root      9 not converged, maximum delta is    0.000021754390588
 Root     10 not converged, maximum delta is    0.000122868402571
 Excitation Energies [eV] at current iteration:
 Root      1 :     3.007566711522431   Change is    0.000000000003608
 Root      2 :     3.973847130302182   Change is    0.000000000003910
 Root      3 :     4.766754549274873   Change is   -0.000000000011417
 Root      4 :     4.790158265415667   Change is   -0.000000000003758
 Root      5 :     5.106445194066211   Change is   -0.000000000033615
 Root      6 :     5.137151317264242   Change is   -0.000000000023299
 Root      7 :     5.217821087085272   Change is   -0.000000000070204
 Root      8 :     5.360460406998218   Change is   -0.000000004597014
 Root      9 :     5.453677378669493   Change is   -0.000000000844810
 Root     10 :     5.520726900283067   Change is   -0.000000016256211
 Iteration     9 Dimension   154 NMult   342 NNew     12
 CISAX will form    12 AO SS matrices at one time.
 NMat=    12 NSing=    12 JSym2X= 0.
 Root      1 has converged.
 Root      2 has converged.
 Root      3 has converged.
 Root      4 has converged.
 Root      5 has converged.
 Root      6 has converged.
 Root      7 not converged, maximum delta is    0.000001581079437
 Root      8 not converged, maximum delta is    0.000012556869648
 Root      9 not converged, maximum delta is    0.000011443581893
 Root     10 not converged, maximum delta is    0.000081851932151
 Excitation Energies [eV] at current iteration:
 Root      1 :     3.007566711545966   Change is    0.000000000023535
 Root      2 :     3.973847130299389   Change is   -0.000000000002793
 Root      3 :     4.766754549268646   Change is   -0.000000000006226
 Root      4 :     4.790158265427406   Change is    0.000000000011738
 Root      5 :     5.106445194052093   Change is   -0.000000000014118
 Root      6 :     5.137151317251679   Change is   -0.000000000012562
 Root      7 :     5.217821087060599   Change is   -0.000000000024673
 Root      8 :     5.360460405225894   Change is   -0.000000001772325
 Root      9 :     5.453677378308370   Change is   -0.000000000361122
 Root     10 :     5.520726891273103   Change is   -0.000000009009963
 Iteration    10 Dimension   162 NMult   354 NNew      8
 CISAX will form     8 AO SS matrices at one time.
 NMat=     8 NSing=     8 JSym2X= 0.
 Root      1 has converged.
 Root      2 has converged.
 Root      3 has converged.
 Root      4 has converged.
 Root      5 has converged.
 Root      6 has converged.
 Root      7 has converged.
 Root      8 not converged, maximum delta is    0.000006264978651
 Root      9 not converged, maximum delta is    0.000004280644862
 Root     10 not converged, maximum delta is    0.000033197126167
 Excitation Energies [eV] at current iteration:
 Root      1 :     3.007566711519070   Change is   -0.000000000026896
 Root      2 :     3.973847130296410   Change is   -0.000000000002979
 Root      3 :     4.766754549262024   Change is   -0.000000000006622
 Root      4 :     4.790158265418808   Change is   -0.000000000008598
 Root      5 :     5.106445194046715   Change is   -0.000000000005378
 Root      6 :     5.137151317238158   Change is   -0.000000000013522
 Root      7 :     5.217821087049854   Change is   -0.000000000010744
 Root      8 :     5.360460404339202   Change is   -0.000000000886692
 Root      9 :     5.453677378191322   Change is   -0.000000000117048
 Root     10 :     5.520726888225557   Change is   -0.000000003047546
 Iteration    11 Dimension   168 NMult   362 NNew      6
 CISAX will form     6 AO SS matrices at one time.
 NMat=     6 NSing=     6 JSym2X= 0.
 Root      1 has converged.
 Root      2 has converged.
 Root      3 has converged.
 Root      4 has converged.
 Root      5 has converged.
 Root      6 has converged.
 Root      7 has converged.
 Root      8 not converged, maximum delta is    0.000003236880840
 Root      9 not converged, maximum delta is    0.000001826052972
 Root     10 not converged, maximum delta is    0.000011822215393
 Excitation Energies [eV] at current iteration:
 Root      1 :     3.007566711531451   Change is    0.000000000012382
 Root      2 :     3.973847130301085   Change is    0.000000000004675
 Root      3 :     4.766754549269820   Change is    0.000000000007795
 Root      4 :     4.790158265424695   Change is    0.000000000005887
 Root      5 :     5.106445194045412   Change is   -0.000000000001304
 Root      6 :     5.137151317233741   Change is   -0.000000000004417
 Root      7 :     5.217821087037597   Change is   -0.000000000012258
 Root      8 :     5.360460403956632   Change is   -0.000000000382569
 Root      9 :     5.453677378124048   Change is   -0.000000000067274
 Root     10 :     5.520726887290301   Change is   -0.000000000935255
 Iteration    12 Dimension   174 NMult   368 NNew      6
 CISAX will form     6 AO SS matrices at one time.
 NMat=     6 NSing=     6 JSym2X= 0.
 Root      1 has converged.
 Root      2 has converged.
 Root      3 has converged.
 Root      4 has converged.
 Root      5 has converged.
 Root      6 has converged.
 Root      7 has converged.
 Root      8 not converged, maximum delta is    0.000002130710939
 Root      9 not converged, maximum delta is    0.000001886434768
 Root     10 not converged, maximum delta is    0.000004270426213
 Excitation Energies [eV] at current iteration:
 Root      1 :     3.007566711544052   Change is    0.000000000012601
 Root      2 :     3.973847130299513   Change is   -0.000000000001572
 Root      3 :     4.766754549268146   Change is   -0.000000000001673
 Root      4 :     4.790158265414003   Change is   -0.000000000010692
 Root      5 :     5.106445194046265   Change is    0.000000000000853
 Root      6 :     5.137151317231052   Change is   -0.000000000002688
 Root      7 :     5.217821087037029   Change is   -0.000000000000567
 Root      8 :     5.360460403785591   Change is   -0.000000000171041
 Root      9 :     5.453677378083906   Change is   -0.000000000040142
 Root     10 :     5.520726886975095   Change is   -0.000000000315206
 Iteration    13 Dimension   180 NMult   374 NNew      6
 CISAX will form     6 AO SS matrices at one time.
 NMat=     6 NSing=     6 JSym2X= 0.
 Root      1 has converged.
 Root      2 has converged.
 Root      3 has converged.
 Root      4 has converged.
 Root      5 has converged.
 Root      6 has converged.
 Root      7 has converged.
 Root      8 not converged, maximum delta is    0.000001528642861
 Root      9 not converged, maximum delta is    0.000001663223420
 Root     10 not converged, maximum delta is    0.000003018561099
 Excitation Energies [eV] at current iteration:
 Root      1 :     3.007566711504446   Change is   -0.000000000039606
 Root      2 :     3.973847130299679   Change is    0.000000000000166
 Root      3 :     4.766754549283082   Change is    0.000000000014935
 Root      4 :     4.790158265410845   Change is   -0.000000000003158
 Root      5 :     5.106445194044156   Change is   -0.000000000002109
 Root      6 :     5.137151317239358   Change is    0.000000000008305
 Root      7 :     5.217821087032366   Change is   -0.000000000004663
 Root      8 :     5.360460403711734   Change is   -0.000000000073858
 Root      9 :     5.453677378055718   Change is   -0.000000000028188
 Root     10 :     5.520726886825592   Change is   -0.000000000149503
 Iteration    14 Dimension   186 NMult   380 NNew      6
 CISAX will form     6 AO SS matrices at one time.
 NMat=     6 NSing=     6 JSym2X= 0.
 Root      1 has converged.
 Root      2 has converged.
 Root      3 has converged.
 Root      4 has converged.
 Root      5 has converged.
 Root      6 has converged.
 Root      7 has converged.
 Root      8 not converged, maximum delta is    0.000001156183554
 Root      9 not converged, maximum delta is    0.000001196766478
 Root     10 not converged, maximum delta is    0.000003112415985
 Excitation Energies [eV] at current iteration:
 Root      1 :     3.007566711487417   Change is   -0.000000000017029
 Root      2 :     3.973847130296430   Change is   -0.000000000003248
 Root      3 :     4.766754549280098   Change is   -0.000000000002984
 Root      4 :     4.790158265410622   Change is   -0.000000000000223
 Root      5 :     5.106445194042787   Change is   -0.000000000001369
 Root      6 :     5.137151317235309   Change is   -0.000000000004048
[...]
 Alpha virt. eigenvalues --    0.16431   0.16483   0.16842   0.16904   0.17144
 Alpha virt. eigenvalues --    0.17212   0.17365   0.17460   0.17637   0.17782
 Alpha virt. eigenvalues --    0.17970   0.18044   0.18332   0.18409   0.18670
 Alpha virt. eigenvalues --    0.18846   0.19025   0.19118   0.19357   0.19603
 Alpha virt. eigenvalues --    0.19904   0.19962   0.20256   0.20322   0.20517
 Alpha virt. eigenvalues --    0.20751   0.21107   0.21359   0.21447   0.21730
 Alpha virt. eigenvalues --    0.21936   0.21988   0.22325   0.22351   0.22446
 Alpha virt. eigenvalues --    0.22778   0.22878   0.23161   0.23430   0.23467
 Alpha virt. eigenvalues --    0.23541   0.23927   0.24006   0.24160   0.24410
 Alpha virt. eigenvalues --    0.24702   0.24851   0.25017   0.25522   0.25608
 Alpha virt. eigenvalues --    0.25689   0.26064   0.26138   0.26278   0.26466
 Alpha virt. eigenvalues --    0.26643   0.26787   0.26827   0.27061   0.27344
 Alpha virt. eigenvalues --    0.27459   0.27788   0.27996   0.28222   0.28515
 Alpha virt. eigenvalues --    0.29114   0.29286   0.29343   0.29448   0.29632
 Alpha virt. eigenvalues --    0.30020   0.30183   0.30354   0.30546   0.30866
 Alpha virt. eigenvalues --    0.30967   0.31273   0.31541   0.32054   0.32178
 Alpha virt. eigenvalues --    0.32371   0.32620   0.33021   0.33142   0.33306
 Alpha virt. eigenvalues --    0.33620   0.33825   0.34088   0.34226   0.34521
 Alpha virt. eigenvalues --    0.34615   0.34852   0.35241   0.35534   0.35642
 Alpha virt. eigenvalues --    0.35826   0.35887   0.36073   0.36089   0.36476
 Alpha virt. eigenvalues --    0.36559   0.36874   0.37076   0.37339   0.37582
 Alpha virt. eigenvalues --    0.37656   0.37884   0.38053   0.38255   0.38617
 Alpha virt. eigenvalues --    0.38881   0.39101   0.39639   0.39701   0.39774
 Alpha virt. eigenvalues --    0.39915   0.40203   0.40778   0.40850   0.41147
 Alpha virt. eigenvalues --    0.41587   0.41692   0.42071   0.42522   0.42680
 Alpha virt. eigenvalues --    0.43158   0.43356   0.43622   0.44205   0.44396
 Alpha virt. eigenvalues --    0.44546   0.44756   0.45130   0.45201   0.45563
 Alpha virt. eigenvalues --    0.45809   0.46067   0.46642   0.47332   0.47566
 Alpha virt. eigenvalues --    0.48196   0.48313   0.48464   0.49146   0.49219
 Alpha virt. eigenvalues --    0.49750   0.50282   0.50867   0.51513   0.51822
 Alpha virt. eigenvalues --    0.52352   0.52892   0.53538   0.53580   0.54446
 Alpha virt. eigenvalues --    0.54962   0.56118   0.56640   0.56756   0.56965
 Alpha virt. eigenvalues --    0.57845   0.58500   0.58788   0.60095   0.60603
 Alpha virt. eigenvalues --    0.60887   0.61084   0.61585   0.61959   0.63098
 Alpha virt. eigenvalues --    0.63378   0.63822   0.64125   0.64417   0.64938
 Alpha virt. eigenvalues --    0.65349   0.65416   0.65892   0.66308   0.66718
 Alpha virt. eigenvalues --    0.67719   0.68378   0.68967   0.69308   0.69497
 Alpha virt. eigenvalues --    0.69774   0.69976   0.70257   0.70914   0.71160
 Alpha virt. eigenvalues --    0.71442   0.71976   0.72066   0.72865   0.73056
 Alpha virt. eigenvalues --    0.73237   0.73375   0.73445   0.73805   0.73868
 Alpha virt. eigenvalues --    0.74419   0.74751   0.75028   0.75202   0.75662
 Alpha virt. eigenvalues --    0.75925   0.76109   0.76448   0.76710   0.77052
 Alpha virt. eigenvalues --    0.77287   0.77835   0.77960   0.78444   0.78610
 Alpha virt. eigenvalues --    0.78733   0.79131   0.79406   0.79601   0.79717
 Alpha virt. eigenvalues --    0.80098   0.80266   0.80396   0.80525   0.81152
 Alpha virt. eigenvalues --    0.81415   0.81595   0.81955   0.82136   0.82800
 Alpha virt. eigenvalues --    0.83105   0.83252   0.83662   0.84027   0.84234
 Alpha virt. eigenvalues --    0.84327   0.84420   0.84995   0.85213   0.85505
 Alpha virt. eigenvalues --    0.85670   0.86021   0.86410   0.86906   0.87062
 Alpha virt. eigenvalues --    0.87539   0.87702   0.88204   0.88334   0.88864
 Alpha virt. eigenvalues --    0.89573   0.89953   0.91022   0.91438   0.91709
 Alpha virt. eigenvalues --    0.92708   0.93354   0.93908   0.94160   0.94807
 Alpha virt. eigenvalues --    0.95967   0.96592   0.96932   0.97586   0.98664
 Alpha virt. eigenvalues --    0.99005   0.99425   0.99907   1.00717   1.00860
 Alpha virt. eigenvalues --    1.01299   1.02078   1.02285   1.02562   1.02956
 Alpha virt. eigenvalues --    1.03149   1.03746   1.03983   1.05083   1.05362
 Alpha virt. eigenvalues --    1.06647   1.06868   1.07522   1.07998   1.09133
 Alpha virt. eigenvalues --    1.09220   1.09491   1.09709   1.09890   1.10611
 Alpha virt. eigenvalues --    1.11181   1.11280   1.11657   1.11916   1.12261
 Alpha virt. eigenvalues --    1.12652   1.12960   1.13531   1.13877   1.13902
 Alpha virt. eigenvalues --    1.14123   1.14441   1.15598   1.16005   1.17712
 Alpha virt. eigenvalues --    1.18063   1.19013   1.19757   1.20147   1.20539
 Alpha virt. eigenvalues --    1.21390   1.21872   1.22321   1.23538   1.23834
 Alpha virt. eigenvalues --    1.24041   1.25639   1.26550   1.27412   1.28158
 Alpha virt. eigenvalues --    1.28508   1.28746   1.28880   1.29972   1.30918
 Alpha virt. eigenvalues --    1.31734   1.32289   1.33404   1.35750   1.36323
 Alpha virt. eigenvalues --    1.36582   1.36980   1.37949   1.38258   1.38416
 Alpha virt. eigenvalues --    1.39783   1.40953   1.41944   1.43040   1.43153
 Alpha virt. eigenvalues --    1.44424   1.45934   1.46047   1.46060   1.46929
 Alpha virt. eigenvalues --    1.47284   1.47512   1.48973   1.49684   1.52502
 Alpha virt. eigenvalues --    1.52598   1.54238   1.54303   1.54790   1.57248
 Alpha virt. eigenvalues --    1.57319   1.58131   1.58621   1.58961   1.59006
 Alpha virt. eigenvalues --    1.59135   1.60132   1.60333   1.60824   1.61159
 Alpha virt. eigenvalues --    1.61613   1.61955   1.63352   1.63653   1.64131
 Alpha virt. eigenvalues --    1.64677   1.65711   1.65893   1.66104   1.66350
 Alpha virt. eigenvalues --    1.66911   1.67253   1.67368   1.67930   1.68015
 Alpha virt. eigenvalues --    1.68333   1.68587   1.68810   1.68973   1.69252
 Alpha virt. eigenvalues --    1.69727   1.69874   1.70516   1.70821   1.71238
 Alpha virt. eigenvalues --    1.71931   1.72369   1.72642   1.72802   1.73529
 Alpha virt. eigenvalues --    1.73776   1.73911   1.74226   1.75477   1.75943
 Alpha virt. eigenvalues --    1.76361   1.76514   1.77612   1.77932   1.78113
 Alpha virt. eigenvalues --    1.78416   1.78855   1.79317   1.79891   1.80612
 Alpha virt. eigenvalues --    1.80747   1.81850   1.81946   1.82209   1.82491
 Alpha virt. eigenvalues --    1.83509   1.85122   1.85862   1.86433   1.86641
 Alpha virt. eigenvalues --    1.87241   1.87599   1.87817   1.88447   1.88760
 Alpha virt. eigenvalues --    1.89026   1.89644   1.90496   1.91200   1.91817
 Alpha virt. eigenvalues --    1.92715   1.92975   1.93773   1.94767   1.94989
 Alpha virt. eigenvalues --    1.95726   1.96566   1.97030   1.97605   1.98191
 Alpha virt. eigenvalues --    1.98578   1.99002   1.99862   2.00210   2.00913
 Alpha virt. eigenvalues --    2.01259   2.01868   2.02705   2.03690   2.03824
 Alpha virt. eigenvalues --    2.04352   2.04915   2.05282   2.06415   2.06782
 Alpha virt. eigenvalues --    2.07001   2.07920   2.08836   2.08900   2.09062
 Alpha virt. eigenvalues --    2.10426   2.10884   2.10946   2.11527   2.12264
 Alpha virt. eigenvalues --    2.12743   2.13400   2.14800   2.15580   2.16444
 Alpha virt. eigenvalues --    2.16815   2.17235   2.17481   2.18898   2.19902
 Alpha virt. eigenvalues --    2.20285   2.21454   2.21872   2.22865   2.23820
 Alpha virt. eigenvalues --    2.24868   2.25910   2.26093   2.26734   2.27482
 Alpha virt. eigenvalues --    2.28024   2.28467   2.29123   2.30126   2.30309
 Alpha virt. eigenvalues --    2.31525   2.32093   2.33272   2.34193   2.34859
 Alpha virt. eigenvalues --    2.35544   2.35844   2.36779   2.37563   2.37930
 Alpha virt. eigenvalues --    2.38042   2.40005   2.40513   2.42193   2.43249
 Alpha virt. eigenvalues --    2.44326   2.45528   2.45862   2.46208   2.47034
 Alpha virt. eigenvalues --    2.48044   2.48896   2.50169   2.50384   2.51048
 Alpha virt. eigenvalues --    2.53802   2.54725   2.55681   2.56998   2.57559
 Alpha virt. eigenvalues --    2.57908   2.58277   2.59349   2.60112   2.60874
 Alpha virt. eigenvalues --    2.60925   2.61280   2.61762   2.62346   2.63260
 Alpha virt. eigenvalues --    2.64633   2.64818   2.64848   2.65856   2.66619
 Alpha virt. eigenvalues --    2.67171   2.67417   2.68165   2.68679   2.69138
 Alpha virt. eigenvalues --    2.69831   2.70416   2.71315   2.71400   2.71877
 Alpha virt. eigenvalues --    2.72148   2.72730   2.73360   2.74232   2.74742
 Alpha virt. eigenvalues --    2.74819   2.75711   2.76117   2.76562   2.77183
 Alpha virt. eigenvalues --    2.77724   2.78625   2.79615   2.79914   2.80005
 Alpha virt. eigenvalues --    2.80576   2.81176   2.81517   2.82156   2.82597
 Alpha virt. eigenvalues --    2.83199   2.85233   2.85799   2.85839   2.86477
 Alpha virt. eigenvalues --    2.86893   2.87815   2.88284   2.89165   2.89834
 Alpha virt. eigenvalues --    2.90881   2.91363   2.91699   2.92913   2.93269
 Alpha virt. eigenvalues --    2.93472   2.94081   2.94636   2.94826   2.95730
 Alpha virt. eigenvalues --    2.96498   2.97256   2.97584   2.99099   2.99680
 Alpha virt. eigenvalues --    2.99978   3.00626   3.01085   3.01828   3.02671
 Alpha virt. eigenvalues --    3.03107   3.04196   3.04454   3.05307   3.05559
 Alpha virt. eigenvalues --    3.06592   3.07211   3.07423   3.07893   3.08609
 Alpha virt. eigenvalues --    3.08882   3.09618   3.10296   3.10640   3.12750
 Alpha virt. eigenvalues --    3.15479   3.16252   3.18235   3.19535   3.19816
 Alpha virt. eigenvalues --    3.20183   3.22408   3.23368   3.24063   3.25294
 Alpha virt. eigenvalues --    3.26830   3.27604   3.28818   3.29415   3.30100
 Alpha virt. eigenvalues --    3.31314   3.31665   3.33731   3.34767   3.35297
 Alpha virt. eigenvalues --    3.36451   3.38629   3.39746   3.41469   3.42410
 Alpha virt. eigenvalues --    3.42811   3.43510   3.43836   3.45972   3.46462
 Alpha virt. eigenvalues --    3.48976   3.49271   3.50282   3.52756   3.54637
 Alpha virt. eigenvalues --    3.55653   3.56220   3.60182   3.61555   3.67672
 Alpha virt. eigenvalues --    3.67982   3.69852   3.71029   3.73976   3.76357
 Alpha virt. eigenvalues --    3.78975   3.79521   3.81018   3.83355   3.83461
 Alpha virt. eigenvalues --    3.84476   3.87947   3.89113   3.90256   3.91509
 Alpha virt. eigenvalues --    3.92003   3.92770   3.93672   3.93771   3.94197
 Alpha virt. eigenvalues --    3.94910   3.95067   3.95158   3.96068   3.96726
 Alpha virt. eigenvalues --    3.97611   3.98353   4.06014   4.08306   4.09576
 Alpha virt. eigenvalues --    4.12378   4.15507   4.16625   4.19742   4.22539
 Alpha virt. eigenvalues --    4.28009   4.31231   4.32033   4.34869   4.35349
 Alpha virt. eigenvalues --    4.37007   4.38542   4.39327   4.39829   4.45811
 Alpha virt. eigenvalues --    4.46110   4.49195   4.58594   4.77511   4.94772
 Alpha virt. eigenvalues --    4.96029   4.96785   4.98014   4.99267   5.13074
 Alpha virt. eigenvalues --    5.17127   5.21580   5.23673   5.24077   5.44299
 Alpha virt. eigenvalues --    5.50892   5.53467   5.82293   6.07255   6.11512
 Alpha virt. eigenvalues --   23.70490  23.83106  23.83751  23.98143  23.98530
 Alpha virt. eigenvalues --   23.98924  23.99941  24.00361  24.00600  24.01971
 Alpha virt. eigenvalues --   24.06738  24.08256  24.08403  24.09554  24.10016
 Alpha virt. eigenvalues --   24.11011  24.11873  24.12115  24.12185  24.14630
 Alpha virt. eigenvalues --   24.14935  24.19717  24.24589  24.25120  24.25746
 Alpha virt. eigenvalues --   24.29506  24.30331  24.30846  35.78030  35.79180
 Alpha virt. eigenvalues --   50.03833  50.10596  50.16369
          Condensed to atoms (all electrons):
 Mulliken charges:
               1
     1  C   -0.032086
     2  C   -0.359491
     3  C   -0.105381
     4  C   -0.492508
     5  C   -0.096557
     6  C    0.429798
     7  O   -0.047998
     8  C    0.459881
     9  C    0.923260
    10  C    0.228687
    11  C   -0.100785
    12  C   -0.517601
    13  C   -0.385962
    14  C   -0.397573
    15  C   -0.060894
    16  C    0.310866
    17  C   -0.207270
    18  C   -0.088097
    19  C   -0.068304
    20  C   -0.493174
    21  C   -0.602593
    22  N   -0.089408
    23  C   -0.296718
    24  C   -0.429575
    25  N   -0.028135
    26  C   -0.051325
    27  C   -0.701457
    28  C   -0.676017
    29  C   -0.578563
    30  O   -0.182022
    31  O   -0.034911
    32  C    0.005676
    33  C   -0.610714
    34  H    0.264739
    35  H    0.152422
    36  H    0.276937
    37  H    0.219654
    38  H    0.246116
    39  H    0.235238
    40  H    0.257670
    41  H    0.153415
    42  H    0.196596
    43  H    0.197400
    44  H    0.191388
    45  H    0.187381
    46  H    0.212386
    47  H    0.159440
    48  H    0.144616
    49  H    0.169179
    50  H    0.388202
    51  H    0.193349
    52  H    0.190477
    53  H    0.180557
    54  H    0.168179
    55  H    0.169346
    56  H    0.192396
    57  H    0.191642
    58  H    0.194903
    59  H    0.195446
    60  H    0.191501
    61  H    0.172579
    62  H    0.163822
    63  H    0.166081
    64  H    0.353895
 Sum of Mulliken charges =   1.00000
 Mulliken charges with hydrogens summed into heavy atoms:
               1
     1  C   -0.032086
     2  C   -0.359491
     3  C    0.159358
     4  C   -0.340086
     5  C   -0.096557
     6  C    0.429798
     7  O   -0.047998
     8  C    0.459881
     9  C    0.923260
    10  C    0.228687
    11  C    0.176152
    12  C   -0.297947
    13  C   -0.139846
    14  C   -0.162334
    15  C   -0.060894
    16  C    0.310866
    17  C    0.050400
    18  C   -0.088097
    19  C   -0.068304
    20  C   -0.339759
    21  C   -0.017209
    22  N    0.264487
    23  C    0.103049
    24  C    0.043660
    25  N    0.360067
    26  C    0.332501
    27  C   -0.183376
    28  C   -0.097075
    29  C   -0.578563
    30  O   -0.182022
    31  O   -0.034911
    32  C    0.392623
    33  C   -0.108233
 Electronic spatial extent (au):  <R**2>=          84015.1462
 Charge=              1.0000 electrons
 Dipole moment (field-independent basis, Debye):
    X=              2.5424    Y=            -42.3182    Z=             -2.2639  Tot=             42.4549
 Quadrupole moment (field-independent basis, Debye-Ang):
   XX=           -135.9507   YY=            298.2563   ZZ=           -176.5909
   XY=            -23.1846   XZ=              7.8805   YZ=             18.8474
 Traceless Quadrupole moment (field-independent basis, Debye-Ang):
   XX=           -131.1889   YY=            303.0181   ZZ=           -171.8291
   XY=            -23.1846   XZ=              7.8805   YZ=             18.8474
 Octapole moment (field-independent basis, Debye-Ang**2):
  XXX=           -675.7749  YYY=          -1364.4489  ZZZ=             44.9565  XYY=           -164.8091
  XXY=           1205.4406  XXZ=            -16.7419  XZZ=           -206.1351  YZZ=           1569.2587
  YYZ=           -238.3010  XYZ=            -55.4511
 Hexadecapole moment (field-independent basis, Debye-Ang**3):
 XXXX=          -9352.4727 YYYY=         -11694.5796 ZZZZ=          -2961.7408 XXXY=           5764.2824
 XXXZ=          -1061.3929 YYYX=           7766.7349 YYYZ=           3212.2615 ZZZX=           -720.1403
 ZZZY=           -449.7038 XXYY=         -14003.5559 XXZZ=          -2021.3418 YYZZ=         -16379.1114
 XXYZ=            132.2760 YYXZ=            115.3778 ZZXY=           1793.4611
 N-N= 3.331927107183D+03 E-N=-9.944249315756D+03  KE= 1.413637910879D+03
 No NMR shielding tensors so no spin-rotation constants.
 Leave Link  601 at Mon Feb 17 12:00:09 2020, MaxMem=  6710886400 cpu:        13.9
 (Enter /opt/sys/apps/gaussian09/D.01/g09/l9999.exe)

 Test job not archived.
 1\1\GINC-S81P22\SP\RCAM-B3LYP TD-FC\6-311++G(d,p)\C28H31N2O3(1+)\SALVA
 TORE\17-Feb-2020\0\\#p CAM-B3LYP/6-311++G** nosym density=current geom
 =allcheck EmpiricalDispersion=GD3 SCRF=(CPCM, solvent=ethanol) IOP(10/
 74=10) TD=(NSTATES=10,ROOT=1,NONEQ) iop(3/119=0810000000) iop(3/120=08
 10000000)\\R6G\\1,1\C,0,1.4859025082,-12.4648864236,-0.3645416185\C,0,
 0.0443221919,-12.4559466293,-0.4846735335\C,0,-0.637277883,-11.2282727
 121,-0.6054327154\C,0,2.1547475,-11.2719239181,-0.3781367248\C,0,1.492
 5673115,-10.0172222915,-0.5029600818\C,0,0.0777226729,-10.0493229455,-
 0.6094309647\O,0,-0.6376449452,-8.8984578898,-0.7168078209\C,0,2.14809
 6349,-8.7745311292,-0.4984664949\C,0,3.6376968485,-8.710151529,-0.4506
 291989\C,0,4.3682919265,-8.5441764327,0.7415062914\C,0,5.7671630993,-8
 .4800438017,0.6865278175\C,0,6.4370277528,-8.5795464797,-0.5274149968\
 C,0,5.712422808,-8.7442411607,-1.7061987519\C,0,4.3217710531,-8.808810
 0559,-1.6649730618\C,0,1.3945057642,-7.5962847957,-0.6302917874\C,0,-0
 .0178843053,-7.6883014149,-0.7300115729\C,0,-0.8260760999,-6.577148514
 5,-0.8364057875\C,0,-0.248701317,-5.2916263688,-0.8522117669\C,0,1.188
 3740461,-5.1563761596,-0.752057428\C,0,1.9522000768,-6.2863463045,-0.6
 474428287\C,0,1.8180554126,-3.788850255,-0.7666899434\N,0,-1.007411996
 1,-4.180882282,-0.9746607845\C,0,-2.4692210828,-4.1429716316,-1.004701
 3672\C,0,-3.1037062421,-4.2952205634,0.3807438984\N,0,-0.6292851571,-1
 3.6244398292,-0.4769551617\C,0,-2.0804470759,-13.760023406,-0.59346894
 2\C,0,-2.4852974927,-15.2275402227,-0.5321109087\C,0,2.2209139126,-13.
 7713829635,-0.2264947666\C,0,3.6523496254,-8.4476424376,2.0489795707\O
 ,0,2.4497937877,-8.5682343925,2.1793310693\O,0,4.4817906501,-8.2136155
 034,3.0732879348\C,0,3.8837518671,-8.1114701695,4.3974990871\C,0,5.009
 951503,-7.8816389712,5.3814322155\H,0,-1.713107394,-11.1824737341,-0.6
 922552831\H,0,3.2340842356,-11.2711790853,-0.2883424234\H,0,6.32406076
 61,-8.353970036,1.6047760302\H,0,7.5188948894,-8.5300073578,-0.5528042
 136\H,0,6.2251210142,-8.8228713912,-2.6576042496\H,0,3.7569306249,-8.9
 341662356,-2.5811299304\H,0,-1.8945163754,-6.721961515,-0.8997181524\H
 ,0,3.028374425,-6.189329449,-0.5729162408\H,0,2.9018314284,-3.86337128
 76,-0.6784781715\H,0,1.5956751138,-3.2539451423,-1.696539079\H,0,1.459
 0787811,-3.1711441668,0.0640244421\H,0,-2.8306101124,-4.9167940998,-1.
 6866510994\H,0,-2.7482511963,-3.1844223508,-1.44409748\H,0,-4.19290467
 42,-4.26312242,0.2970595109\H,0,-2.8234453106,-5.2444083558,0.84258503
 89\H,0,-2.7832538111,-3.4852434566,1.040241101\H,0,-0.101714306,-14.47
 93270841,-0.3910439386\H,0,-2.410257639,-13.314886954,-1.5386869269\H,
 0,-2.5613523178,-13.2013761666,0.2168481423\H,0,-3.5694372816,-15.3155
 349908,-0.620676993\H,0,-2.0307823893,-15.7952041335,-1.3484474032\H,0
 ,-2.1840969742,-15.6786765327,0.4170438159\H,0,1.9024606312,-14.318079
 6265,0.6677736347\H,0,2.0496392049,-14.4224991618,-1.0906261686\H,0,3.
 2947476006,-13.6027157181,-0.1469015046\H,0,3.3396485917,-9.0359209921
 ,4.6011503639\H,0,3.168832055,-7.2861713497,4.3878153705\H,0,4.5985394
 942,-7.8000049726,6.3904002829\H,0,5.7177598652,-8.7132553918,5.363968
 2531\H,0,5.5461807268,-6.9581281013,5.1522229006\H,0,-0.5409747364,-3.
 2890191561,-0.9249085044\\Version=ES64L-G09RevD.01\HF=-1419.3231243\RM
 SD=5.168e-09\Dipole=-1.8189298,-0.0516493,-1.1059022\Quadrupole=-97.53
 57582,225.2865072,-127.750749,-17.2372048,5.8589262,14.0125503\PG=C01 
 [X(C28H31N2O3)]\\@


 IT IS THE GODS' CUSTOM TO BRING LOW ALL THINGS OF SURPASSING GREATNESS.
     -- HERODOTUS
 IT IS THE LOFTY PINE THAT BY THE STORM IS OFTENER TOSSED;
 TOWERS FALL WITH HEAVIER CRASH WHICH HIGHER SOAR.
     -- HORACE
 THE BIGGER THEY COME, THE HARDER THEY FALL.
     -- BOB FITZSIMONS HEAVYWEIGHT CHAMPION, 1897-1899
 Job cpu time:       2 days 16 hours 11 minutes  4.9 seconds.
 File lengths (MBytes):  RWF=   2513 Int=      0 D2E=      0 Chk=    448 Scr=      1
 Normal termination of Gaussian 09 at Mon Feb 17 12:00:11 2020.
