 Entering Gaussian System, Link 0=g09
 Initial command:
 /opt/sys/apps/gaussian09/D.01/g09/l1.exe "/tmp/Gau-10481.inp" -scrdir="/tmp/"
 Entering Link 1 = /opt/sys/apps/gaussian09/D.01/g09/l1.exe PID=     10482.
  
 Copyright (c) 1988,1990,1992,1993,1995,1998,2003,2009,2013,
            Gaussian, Inc.  All Rights Reserved.
  
 This is part of the Gaussian(R) 09 program.  It is based on
 the Gaussian(R) 03 system (copyright 2003, Gaussian, Inc.),
 the Gaussian(R) 98 system (copyright 1998, Gaussian, Inc.),
 the Gaussian(R) 94 system (copyright 1995, Gaussian, Inc.),
 the Gaussian 92(TM) system (copyright 1992, Gaussian, Inc.),
 the Gaussian 90(TM) system (copyright 1990, Gaussian, Inc.),
 the Gaussian 88(TM) system (copyright 1988, Gaussian, Inc.),
 the Gaussian 86(TM) system (copyright 1986, Carnegie Mellon
 University), and the Gaussian 82(TM) system (copyright 1983,
 Carnegie Mellon University). Gaussian is a federally registered
 trademark of Gaussian, Inc.
  
 This software contains proprietary and confidential information,
 including trade secrets, belonging to Gaussian, Inc.
  
 This software is provided under written license and may be
 used, copied, transmitted, or stored only in accord with that
 written license.
  
 The following legend is applicable only to US Government
 contracts under FAR:
  
                    RESTRICTED RIGHTS LEGEND
  
 Use, reproduction and disclosure by the US Government is
 subject to restrictions as set forth in subparagraphs (a)
 and (c) of the Commercial Computer Software - Restricted
 Rights clause in FAR 52.227-19.
  
 Gaussian, Inc.
 340 Quinnipiac St., Bldg. 40, Wallingford CT 06492
  
  
 ---------------------------------------------------------------
 Warning -- This program may not be used in any manner that
 competes with the business of Gaussian, Inc. or will provide
 assistance to any competitor of Gaussian, Inc.  The licensee
 of this program is prohibited from giving any competitor of
 Gaussian, Inc. access to this program.  By using this program,
 the user acknowledges that Gaussian, Inc. is engaged in the
 business of creating and licensing software in the field of
 computational chemistry and represents and warrants to the
 licensee that it is not a competitor of Gaussian, Inc. and that
 it will not use this program in any manner prohibited above.
 ---------------------------------------------------------------
  

 Cite this work as:
 Gaussian 09, Revision D.01,
 M. J. Frisch, G. W. Trucks, H. B. Schlegel, G. E. Scuseria, 
 M. A. Robb, J. R. Cheeseman, G. Scalmani, V. Barone, B. Mennucci, 
 G. A. Petersson, H. Nakatsuji, M. Caricato, X. Li, H. P. Hratchian, 
 A. F. Izmaylov, J. Bloino, G. Zheng, J. L. Sonnenberg, M. Hada, 
 M. Ehara, K. Toyota, R. Fukuda, J. Hasegawa, M. Ishida, T. Nakajima, 
 Y. Honda, O. Kitao, H. Nakai, T. Vreven, J. A. Montgomery, Jr., 
 J. E. Peralta, F. Ogliaro, M. Bearpark, J. J. Heyd, E. Brothers, 
 K. N. Kudin, V. N. Staroverov, T. Keith, R. Kobayashi, J. Normand, 
 K. Raghavachari, A. Rendell, J. C. Burant, S. S. Iyengar, J. Tomasi, 
 M. Cossi, N. Rega, J. M. Millam, M. Klene, J. E. Knox, J. B. Cross, 
 V. Bakken, C. Adamo, J. Jaramillo, R. Gomperts, R. E. Stratmann, 
 O. Yazyev, A. J. Austin, R. Cammi, C. Pomelli, J. W. Ochterski, 
 R. L. Martin, K. Morokuma, V. G. Zakrzewski, G. A. Voth, 
 P. Salvador, J. J. Dannenberg, S. Dapprich, A. D. Daniels, 
 O. Farkas, J. B. Foresman, J. V. Ortiz, J. Cioslowski, 
 and D. J. Fox, Gaussian, Inc., Wallingford CT, 2013.
 
 ******************************************
 Gaussian 09:  ES64L-G09RevD.01 24-Apr-2013
                 2-May-2020 
 ******************************************
 %NProcShared=24
 Will use up to   24 processors via shared memory.
 %oldChk=checkpointCPCM_ethanol.chk
 %Chk=checkpointCPCM_ethanolES.chk
 %mem=50Gb
 Copying data from "checkpointCPCM_ethanol.chk" to current chk file "checkpointCPCM_ethanolES.chk".
 ----------------------------------------------------------------------
 #p CAM-B3LYP/6-311++G** nosym density=current geom=allcheck EmpiricalD
 ispersion=GD3 SCRF=(CPCM, solvent=ethanol) IOP(10/74=10) TD=(NSTATES=3
 0,ROOT=1,NONEQ) iop(3/119=0810000000) iop(3/120=0810000000)
 ----------------------------------------------------------------------
 1/29=7,30=1,38=1/1;
 2/12=2,15=1,40=1/2;
 3/5=4,6=6,7=1111,11=9,14=-4,16=1,25=1,30=1,70=2101,71=1,72=4,74=-40,119=810000000,120=810000000,124=31/1,2,8,3;
 4//1;
 5/5=2,38=5,53=4/2;
 8/6=1,10=2,107=1,108=30/1;
 9/8=1,15=1,41=30,42=1,70=2,73=1/14;
 10/5=4,13=10,31=1,74=10/2;
 6/7=2,8=2,9=2,10=2,22=-1/1;
 99/5=1,9=1/99;
 Leave Link    1 at Sat May  2 11:00:36 2020, MaxMem=  6710886400 cpu:        27.7
 (Enter /opt/sys/apps/gaussian09/D.01/g09/l101.exe)
 Structure from the checkpoint file:  "checkpointCPCM_ethanolES.chk"
 ---
 R6G
 ---
 Charge =  1 Multiplicity = 1
 Redundant internal coordinates found in file.
 C,0,1.4859025082,-12.4648864236,-0.3645416185
 C,0,0.0443221919,-12.4559466293,-0.4846735335
 C,0,-0.637277883,-11.2282727121,-0.6054327154
 C,0,2.1547475,-11.2719239181,-0.3781367248
 C,0,1.4925673115,-10.0172222915,-0.5029600818
 C,0,0.0777226729,-10.0493229455,-0.6094309647
 O,0,-0.6376449452,-8.8984578898,-0.7168078209
 C,0,2.148096349,-8.7745311292,-0.4984664949
 C,0,3.6376968485,-8.710151529,-0.4506291989
 C,0,4.3682919265,-8.5441764327,0.7415062914
 C,0,5.7671630993,-8.4800438017,0.6865278175
 C,0,6.4370277528,-8.5795464797,-0.5274149968
 C,0,5.712422808,-8.7442411607,-1.7061987519
 C,0,4.3217710531,-8.8088100559,-1.6649730618
 C,0,1.3945057642,-7.5962847957,-0.6302917874
 C,0,-0.0178843053,-7.6883014149,-0.7300115729
 C,0,-0.8260760999,-6.5771485145,-0.8364057875
 C,0,-0.248701317,-5.2916263688,-0.8522117669
 C,0,1.1883740461,-5.1563761596,-0.752057428
 C,0,1.9522000768,-6.2863463045,-0.6474428287
 C,0,1.8180554126,-3.788850255,-0.7666899434
 N,0,-1.0074119961,-4.180882282,-0.9746607845
 C,0,-2.4692210828,-4.1429716316,-1.0047013672
 C,0,-3.1037062421,-4.2952205634,0.3807438984
 N,0,-0.6292851571,-13.6244398292,-0.4769551617
 C,0,-2.0804470759,-13.760023406,-0.593468942
 C,0,-2.4852974927,-15.2275402227,-0.5321109087
 C,0,2.2209139126,-13.7713829635,-0.2264947666
 C,0,3.6523496254,-8.4476424376,2.0489795707
 O,0,2.4497937877,-8.5682343925,2.1793310693
 O,0,4.4817906501,-8.2136155034,3.0732879348
 C,0,3.8837518671,-8.1114701695,4.3974990871
 C,0,5.009951503,-7.8816389712,5.3814322155
 H,0,-1.713107394,-11.1824737341,-0.6922552831
 H,0,3.2340842356,-11.2711790853,-0.2883424234
 H,0,6.3240607661,-8.353970036,1.6047760302
 H,0,7.5188948894,-8.5300073578,-0.5528042136
 H,0,6.2251210142,-8.8228713912,-2.6576042496
 H,0,3.7569306249,-8.9341662356,-2.5811299304
 H,0,-1.8945163754,-6.721961515,-0.8997181524
 H,0,3.028374425,-6.189329449,-0.5729162408
 H,0,2.9018314284,-3.8633712876,-0.6784781715
 H,0,1.5956751138,-3.2539451423,-1.696539079
 H,0,1.4590787811,-3.1711441668,0.0640244421
 H,0,-2.8306101124,-4.9167940998,-1.6866510994
 H,0,-2.7482511963,-3.1844223508,-1.44409748
 H,0,-4.1929046742,-4.26312242,0.2970595109
 H,0,-2.8234453106,-5.2444083558,0.8425850389
 H,0,-2.7832538111,-3.4852434566,1.040241101
 H,0,-0.101714306,-14.4793270841,-0.3910439386
 H,0,-2.410257639,-13.314886954,-1.5386869269
 H,0,-2.5613523178,-13.2013761666,0.2168481423
 H,0,-3.5694372816,-15.3155349908,-0.620676993
 H,0,-2.0307823893,-15.7952041335,-1.3484474032
 H,0,-2.1840969742,-15.6786765327,0.4170438159
 H,0,1.9024606312,-14.3180796265,0.6677736347
 H,0,2.0496392049,-14.4224991618,-1.0906261686
 H,0,3.2947476006,-13.6027157181,-0.1469015046
 H,0,3.3396485917,-9.0359209921,4.6011503639
 H,0,3.168832055,-7.2861713497,4.3878153705
 H,0,4.5985394942,-7.8000049726,6.3904002829
 H,0,5.7177598652,-8.7132553918,5.3639682531
 H,0,5.5461807268,-6.9581281013,5.1522229006
 H,0,-0.5409747364,-3.2890191561,-0.9249085044
 Recover connectivity data from disk.
 NAtoms=     64 NQM=       64 NQMF=       0 NMMI=      0 NMMIF=      0
                NMic=       0 NMicF=      0.
                    Isotopes and Nuclear Properties:
 (Nuclear quadrupole moments (NQMom) in fm**2, nuclear magnetic moments (NMagM)
  in nuclear magnetons)

  Atom         1           2           3           4           5           6           7           8           9          10
 IAtWgt=          12          12          12          12          12          12          16          12          12          12
 AtmWgt=  12.0000000  12.0000000  12.0000000  12.0000000  12.0000000  12.0000000  15.9949146  12.0000000  12.0000000  12.0000000
 NucSpn=           0           0           0           0           0           0           0           0           0           0
 AtZEff=  -3.6000000  -3.6000000  -3.6000000  -3.6000000  -3.6000000  -3.6000000  -5.6000000  -3.6000000  -3.6000000  -3.6000000
 NQMom=    0.0000000   0.0000000   0.0000000   0.0000000   0.0000000   0.0000000   0.0000000   0.0000000   0.0000000   0.0000000
 NMagM=    0.0000000   0.0000000   0.0000000   0.0000000   0.0000000   0.0000000   0.0000000   0.0000000   0.0000000   0.0000000
 AtZNuc=   6.0000000   6.0000000   6.0000000   6.0000000   6.0000000   6.0000000   8.0000000   6.0000000   6.0000000   6.0000000

  Atom        11          12          13          14          15          16          17          18          19          20
 IAtWgt=          12          12          12          12          12          12          12          12          12          12
 AtmWgt=  12.0000000  12.0000000  12.0000000  12.0000000  12.0000000  12.0000000  12.0000000  12.0000000  12.0000000  12.0000000
 NucSpn=           0           0           0           0           0           0           0           0           0           0
 AtZEff=  -3.6000000  -3.6000000  -3.6000000  -3.6000000  -3.6000000  -3.6000000  -3.6000000  -3.6000000  -3.6000000  -3.6000000
 NQMom=    0.0000000   0.0000000   0.0000000   0.0000000   0.0000000   0.0000000   0.0000000   0.0000000   0.0000000   0.0000000
 NMagM=    0.0000000   0.0000000   0.0000000   0.0000000   0.0000000   0.0000000   0.0000000   0.0000000   0.0000000   0.0000000
 AtZNuc=   6.0000000   6.0000000   6.0000000   6.0000000   6.0000000   6.0000000   6.0000000   6.0000000   6.0000000   6.0000000

  Atom        21          22          23          24          25          26          27          28          29          30
 IAtWgt=          12          14          12          12          14          12          12          12          12          16
 AtmWgt=  12.0000000  14.0030740  12.0000000  12.0000000  14.0030740  12.0000000  12.0000000  12.0000000  12.0000000  15.9949146
 NucSpn=           0           2           0           0           2           0           0           0           0           0
 AtZEff=  -3.6000000  -4.5500000  -3.6000000  -3.6000000  -4.5500000  -3.6000000  -3.6000000  -3.6000000  -3.6000000  -5.6000000
 NQMom=    0.0000000   2.0440000   0.0000000   0.0000000   2.0440000   0.0000000   0.0000000   0.0000000   0.0000000   0.0000000
 NMagM=    0.0000000   0.4037610   0.0000000   0.0000000   0.4037610   0.0000000   0.0000000   0.0000000   0.0000000   0.0000000
 AtZNuc=   6.0000000   7.0000000   6.0000000   6.0000000   7.0000000   6.0000000   6.0000000   6.0000000   6.0000000   8.0000000

  Atom        31          32          33          34          35          36          37          38          39          40
 IAtWgt=          16          12          12           1           1           1           1           1           1           1
 AtmWgt=  15.9949146  12.0000000  12.0000000   1.0078250   1.0078250   1.0078250   1.0078250   1.0078250   1.0078250   1.0078250
 NucSpn=           0           0           0           1           1           1           1           1           1           1
 AtZEff=  -5.6000000  -3.6000000  -3.6000000  -1.0000000  -1.0000000  -1.0000000  -1.0000000  -1.0000000  -1.0000000  -1.0000000
 NQMom=    0.0000000   0.0000000   0.0000000   0.0000000   0.0000000   0.0000000   0.0000000   0.0000000   0.0000000   0.0000000
 NMagM=    0.0000000   0.0000000   0.0000000   2.7928460   2.7928460   2.7928460   2.7928460   2.7928460   2.7928460   2.7928460
 AtZNuc=   8.0000000   6.0000000   6.0000000   1.0000000   1.0000000   1.0000000   1.0000000   1.0000000   1.0000000   1.0000000

  Atom        41          42          43          44          45          46          47          48          49          50
 IAtWgt=           1           1           1           1           1           1           1           1           1           1
 AtmWgt=   1.0078250   1.0078250   1.0078250   1.0078250   1.0078250   1.0078250   1.0078250   1.0078250   1.0078250   1.0078250
 NucSpn=           1           1           1           1           1           1           1           1           1           1
 AtZEff=  -1.0000000  -1.0000000  -1.0000000  -1.0000000  -1.0000000  -1.0000000  -1.0000000  -1.0000000  -1.0000000  -1.0000000
 NQMom=    0.0000000   0.0000000   0.0000000   0.0000000   0.0000000   0.0000000   0.0000000   0.0000000   0.0000000   0.0000000
 NMagM=    2.7928460   2.7928460   2.7928460   2.7928460   2.7928460   2.7928460   2.7928460   2.7928460   2.7928460   2.7928460
 AtZNuc=   1.0000000   1.0000000   1.0000000   1.0000000   1.0000000   1.0000000   1.0000000   1.0000000   1.0000000   1.0000000

  Atom        51          52          53          54          55          56          57          58          59          60
 IAtWgt=           1           1           1           1           1           1           1           1           1           1
 AtmWgt=   1.0078250   1.0078250   1.0078250   1.0078250   1.0078250   1.0078250   1.0078250   1.0078250   1.0078250   1.0078250
 NucSpn=           1           1           1           1           1           1           1           1           1           1
 AtZEff=  -1.0000000  -1.0000000  -1.0000000  -1.0000000  -1.0000000  -1.0000000  -1.0000000  -1.0000000  -1.0000000  -1.0000000
 NQMom=    0.0000000   0.0000000   0.0000000   0.0000000   0.0000000   0.0000000   0.0000000   0.0000000   0.0000000   0.0000000
 NMagM=    2.7928460   2.7928460   2.7928460   2.7928460   2.7928460   2.7928460   2.7928460   2.7928460   2.7928460   2.7928460
 AtZNuc=   1.0000000   1.0000000   1.0000000   1.0000000   1.0000000   1.0000000   1.0000000   1.0000000   1.0000000   1.0000000

  Atom        61          62          63          64
 IAtWgt=           1           1           1           1
 AtmWgt=   1.0078250   1.0078250   1.0078250   1.0078250
 NucSpn=           1           1           1           1
 AtZEff=  -1.0000000  -1.0000000  -1.0000000  -1.0000000
 NQMom=    0.0000000   0.0000000   0.0000000   0.0000000
 NMagM=    2.7928460   2.7928460   2.7928460   2.7928460
 AtZNuc=   1.0000000   1.0000000   1.0000000   1.0000000
 Leave Link  101 at Sat May  2 11:00:36 2020, MaxMem=  6710886400 cpu:         6.1
 (Enter /opt/sys/apps/gaussian09/D.01/g09/l202.exe)
 Symmetry turned off by external request.
 Stoichiometry    C28H31N2O3(1+)
 Framework group  C1[X(C28H31N2O3)]
 Deg. of freedom   186
 Full point group                 C1      NOp   1
                          Input orientation:                          
 ---------------------------------------------------------------------
 Center     Atomic      Atomic             Coordinates (Angstroms)
 Number     Number       Type             X           Y           Z
 ---------------------------------------------------------------------
      1          6           0        1.485903  -12.464886   -0.364542
      2          6           0        0.044322  -12.455947   -0.484674
      3          6           0       -0.637278  -11.228273   -0.605433
      4          6           0        2.154747  -11.271924   -0.378137
      5          6           0        1.492567  -10.017222   -0.502960
      6          6           0        0.077723  -10.049323   -0.609431
      7          8           0       -0.637645   -8.898458   -0.716808
      8          6           0        2.148096   -8.774531   -0.498466
      9          6           0        3.637697   -8.710152   -0.450629
     10          6           0        4.368292   -8.544176    0.741506
     11          6           0        5.767163   -8.480044    0.686528
     12          6           0        6.437028   -8.579546   -0.527415
     13          6           0        5.712423   -8.744241   -1.706199
     14          6           0        4.321771   -8.808810   -1.664973
     15          6           0        1.394506   -7.596285   -0.630292
     16          6           0       -0.017884   -7.688301   -0.730012
     17          6           0       -0.826076   -6.577149   -0.836406
     18          6           0       -0.248701   -5.291626   -0.852212
     19          6           0        1.188374   -5.156376   -0.752057
     20          6           0        1.952200   -6.286346   -0.647443
     21          6           0        1.818055   -3.788850   -0.766690
     22          7           0       -1.007412   -4.180882   -0.974661
     23          6           0       -2.469221   -4.142972   -1.004701
     24          6           0       -3.103706   -4.295221    0.380744
     25          7           0       -0.629285  -13.624440   -0.476955
     26          6           0       -2.080447  -13.760023   -0.593469
     27          6           0       -2.485297  -15.227540   -0.532111
     28          6           0        2.220914  -13.771383   -0.226495
     29          6           0        3.652350   -8.447642    2.048980
     30          8           0        2.449794   -8.568234    2.179331
     31          8           0        4.481791   -8.213616    3.073288
     32          6           0        3.883752   -8.111470    4.397499
     33          6           0        5.009952   -7.881639    5.381432
     34          1           0       -1.713107  -11.182474   -0.692255
     35          1           0        3.234084  -11.271179   -0.288342
     36          1           0        6.324061   -8.353970    1.604776
     37          1           0        7.518895   -8.530007   -0.552804
     38          1           0        6.225121   -8.822871   -2.657604
     39          1           0        3.756931   -8.934166   -2.581130
     40          1           0       -1.894516   -6.721962   -0.899718
     41          1           0        3.028374   -6.189329   -0.572916
     42          1           0        2.901831   -3.863371   -0.678478
     43          1           0        1.595675   -3.253945   -1.696539
     44          1           0        1.459079   -3.171144    0.064024
     45          1           0       -2.830610   -4.916794   -1.686651
     46          1           0       -2.748251   -3.184422   -1.444097
     47          1           0       -4.192905   -4.263122    0.297060
     48          1           0       -2.823445   -5.244408    0.842585
     49          1           0       -2.783254   -3.485243    1.040241
     50          1           0       -0.101714  -14.479327   -0.391044
     51          1           0       -2.410258  -13.314887   -1.538687
     52          1           0       -2.561352  -13.201376    0.216848
     53          1           0       -3.569437  -15.315535   -0.620677
     54          1           0       -2.030782  -15.795204   -1.348447
     55          1           0       -2.184097  -15.678677    0.417044
     56          1           0        1.902461  -14.318080    0.667774
     57          1           0        2.049639  -14.422499   -1.090626
     58          1           0        3.294748  -13.602716   -0.146902
     59          1           0        3.339649   -9.035921    4.601150
     60          1           0        3.168832   -7.286171    4.387815
     61          1           0        4.598539   -7.800005    6.390400
     62          1           0        5.717760   -8.713255    5.363968
     63          1           0        5.546181   -6.958128    5.152223
     64          1           0       -0.540975   -3.289019   -0.924909
 ---------------------------------------------------------------------
 Rotational constants (GHZ):      0.1195192      0.0999779      0.0683023
 Leave Link  202 at Sat May  2 11:00:36 2020, MaxMem=  6710886400 cpu:         0.1
 (Enter /opt/sys/apps/gaussian09/D.01/g09/l301.exe)
 Standard basis: 6-311++G(d,p) (5D, 7F)
 Ernie: Thresh=  0.10000D-02 Tol=  0.10000D-05 Strict=F.
   943 basis functions,  1467 primitive gaussians,   976 cartesian basis functions
   118 alpha electrons      118 beta electrons
       nuclear repulsion energy      3331.9739853769 Hartrees.
 IExCor=20419 DFT=T Ex+Corr=CAM-B3LYP ExCW=0 ScaHFX=  1.000000
 ScaDFX=  1.000000  1.000000  1.000000  0.810000 ScalE2=  1.000000  1.000000
 IRadAn=      0 IRanWt=     -1 IRanGd=            0 ICorTp=0 IEmpDi=131
  HFx wShort=  0.000000 wLong=  0.330000 cFull=  0.190000 cShort=  0.000000 cLong=  0.810000
  DFx wShort=  0.000000 wLong=  0.330000 cFull=  0.190000 cShort=  0.000000 cLong=  0.810000
 NAtoms=   64 NActive=   64 NUniq=   64 SFac= 1.00D+00 NAtFMM=   60 NAOKFM=T Big=T
 Integral buffers will be    131072 words long.
 Raffenetti 1 integral format.
 Two-electron integral symmetry is turned off.
 R6Disp:  Grimme-D3 Dispersion energy=       -0.0468781935 Hartrees.
 Nuclear repulsion after empirical dispersion term =     3331.9271071834 Hartrees.
 ------------------------------------------------------------------------------
 Polarizable Continuum Model (PCM)
 =================================
 Model                : C-PCM.
 Atomic radii         : UFF (Universal Force Field).
 Polarization charges : Total charges.
 Charge compensation  : None.
 Solution method      : On-the-fly selection.
 Cavity type          : Scaled VdW (van der Waals Surface) (Alpha=1.100).
 Cavity algorithm     : GePol (No added spheres)
                        Default sphere list used, NSphG=   64.
                        Lebedev-Laikov grids with approx.  5.0 points / Ang**2.
                        Smoothing algorithm: Karplus/York (Gamma=1.0000).
                        Polarization charges: spherical gaussians, with
                                              point-specific exponents (IZeta= 3).
                        Self-potential: point-specific (ISelfS= 7).
                        Self-field    : sphere-specific E.n sum rule (ISelfD= 2).
 1st derivatives      : Analytical E(r).r(x)/FMM algorithm (CHGder, D1EAlg=3).
                        Cavity 1st derivative terms included.
 Solvent              : Ethanol, Eps=  24.852000 Eps(inf)=   1.852593
 ------------------------------------------------------------------------------
 GePol: Number of generator spheres                  =      64
 GePol: Total number of spheres                      =      64
 GePol: Number of exposed spheres                    =      64 (100.00%)
 GePol: Number of points                             =    4494
 GePol: Average weight of points                     =       0.13
 GePol: Minimum weight of points                     =   0.31D-09
 GePol: Maximum weight of points                     =    0.20577
 GePol: Number of points with low weight             =     331
 GePol: Fraction of low-weight points (<1% of avg)   =       7.37%
 GePol: Cavity surface area                          =    567.766 Ang**2
 GePol: Cavity volume                                =    632.715 Ang**3
 Leave Link  301 at Sat May  2 11:00:36 2020, MaxMem=  6710886400 cpu:         1.2
 (Enter /opt/sys/apps/gaussian09/D.01/g09/l302.exe)
 NPDir=0 NMtPBC=     1 NCelOv=     1 NCel=       1 NClECP=     1 NCelD=      1
         NCelK=      1 NCelE2=     1 NClLst=     1 CellRange=     0.0.
 One-electron integrals computed using PRISM.
 NBasis=   943 RedAO= T EigKep=  1.63D-06  NBF=   943
 NBsUse=   926 1.00D-06 EigRej=  9.43D-07 NBFU=   926
 Precomputing XC quadrature grid using
 IXCGrd= 4 IRadAn=           0 IRanWt=          -1 IRanGd=           0 AccXCQ= 0.00D+00.
 Generated NRdTot=       0 NPtTot=           0 NUsed=           0 NTot=          32
 NSgBfM=   935   935   935   935   935 MxSgAt=    64 MxSgA2=    64.
 Leave Link  302 at Sat May  2 11:00:39 2020, MaxMem=  6710886400 cpu:        49.8
 (Enter /opt/sys/apps/gaussian09/D.01/g09/l308.exe)
 Leave Link  308 at Sat May  2 11:00:39 2020, MaxMem=  6710886400 cpu:         4.7
 (Enter /opt/sys/apps/gaussian09/D.01/g09/l303.exe)
 DipDrv:  MaxL=1.
 Leave Link  303 at Sat May  2 11:00:39 2020, MaxMem=  6710886400 cpu:         3.5
 (Enter /opt/sys/apps/gaussian09/D.01/g09/l401.exe)
 ExpMin= 3.60D-02 ExpMax= 8.59D+03 ExpMxC= 1.30D+03 IAcc=3 IRadAn=         5 AccDes= 0.00D+00
 Harris functional with IExCor=20419 and IRadAn=       5 diagonalized for initial guess.
 HarFok:  IExCor=20419 AccDes= 0.00D+00 IRadAn=         5 IDoV= 1 UseB2=F ITyADJ=14
 ICtDFT=  3500011 ScaDFX=  1.000000  1.000000  1.000000  1.000000
 FoFCou: FMM=F IPFlag=           0 FMFlag=      100000 FMFlg1=        2001
         NFxFlg=           0 DoJE=T BraDBF=F KetDBF=T FulRan=T
         wScrn=  0.000000 ICntrl=     500 IOpCl=  0 I1Cent=   200000004 NGrid=           0
         NMat0=    1 NMatS0=      1 NMatT0=    0 NMatD0=    1 NMtDS0=    0 NMtDT0=    0
 Symmetry not used in FoFCou.
 Harris En= -1349.48280899242    
 JPrj=0 DoOrth=F DoCkMO=F.
 Leave Link  401 at Sat May  2 11:00:47 2020, MaxMem=  6710886400 cpu:       162.2
 (Enter /opt/sys/apps/gaussian09/D.01/g09/l502.exe)
 Closed shell SCF:
 Using DIIS extrapolation, IDIIS=  1040.
 Two-electron integral symmetry not used.
 IVT=     2905686 IEndB=     2905686 NGot=  6710886400 MDV=  6708950907
 LenX=  6708950907 LenY=  6707997355
 Requested convergence on RMS density matrix=1.00D-08 within 128 cycles.
 Requested convergence on MAX density matrix=1.00D-06.
 Requested convergence on             energy=1.00D-06.
 No special actions if energy rises.
 Fock matrices will be formed incrementally for  20 cycles.

 Cycle   1  Pass 1  IDiag  1:
 FoFJK:  IHMeth= 1 ICntrl=       0 DoSepK=T KAlg= 0 I1Cent=   0 FoldK=F
 IRaf=         1 NMat=   1 IRICut=       1 DoRegI=T DoRafI=F ISym2E= 0.
 FoFCou: FMM=T IPFlag=           0 FMFlag=      100000 FMFlg1=        2001
         NFxFlg=           0 DoJE=T BraDBF=F KetDBF=F FulRan=T
         wScrn=  0.000000 ICntrl=     500 IOpCl=  0 I1Cent=           0 NGrid=           0
         NMat0=    1 NMatS0=      1 NMatT0=    0 NMatD0=    1 NMtDS0=    0 NMtDT0=    0
 Symmetry not used in FoFCou.
 FMM levels:  10  Number of levels for PrismC:   9
 Inv3:  Mode=1 IEnd=    60588108.
 Iteration    1 A*A^-1 deviation from unit magnitude is 7.44D-15 for   4472.
 Iteration    1 A*A^-1 deviation from orthogonality  is 5.22D-15 for   4490   4369.
 Iteration    1 A^-1*A deviation from unit magnitude is 7.44D-15 for   4472.
 Iteration    1 A^-1*A deviation from orthogonality  is 3.56D-15 for   3758   2591.
 E= -1418.79083241449    
 DIIS: error= 4.79D-02 at cycle   1 NSaved=   1.
 NSaved= 1 IEnMin= 1 EnMin= -1418.79083241449     IErMin= 1 ErrMin= 4.79D-02
 ErrMax= 4.79D-02  0.00D+00 EMaxC= 1.00D-01 BMatC= 2.55D+00 BMatP= 2.55D+00
 IDIUse=3 WtCom= 5.21D-01 WtEn= 4.79D-01
 Coeff-Com:  0.100D+01
 Coeff-En:   0.100D+01
 Coeff:      0.100D+01
 Gap=     0.348 Goal=   None    Shift=    0.000
 GapD=    0.348 DampG=1.000 DampE=0.500 DampFc=0.5000 IDamp=-1.
 Damping current iteration by 5.00D-01
 RMSDP=8.05D-03 MaxDP=1.42D+00              OVMax= 1.61D-01

 Cycle   2  Pass 1  IDiag  1:
 RMSU=  3.87D-03    CP:  1.04D+00
 E= -1419.04968187840     Delta-E=       -0.258849463911 Rises=F Damp=T
 DIIS: error= 2.11D-02 at cycle   2 NSaved=   2.
 NSaved= 2 IEnMin= 2 EnMin= -1419.04968187840     IErMin= 2 ErrMin= 2.11D-02
 ErrMax= 2.11D-02  0.00D+00 EMaxC= 1.00D-01 BMatC= 5.08D-01 BMatP= 2.55D+00
 IDIUse=3 WtCom= 7.89D-01 WtEn= 2.11D-01
 Coeff-Com: -0.532D+00 0.153D+01
 Coeff-En:   0.000D+00 0.100D+01
 Coeff:     -0.419D+00 0.142D+01
 Gap=     0.261 Goal=   None    Shift=    0.000
 RMSDP=4.03D-03 MaxDP=6.60D-01 DE=-2.59D-01 OVMax= 1.37D-01

 Cycle   3  Pass 1  IDiag  1:
 RMSU=  3.55D-03    CP:  1.06D+00  1.47D+00
 E= -1419.24472939676     Delta-E=       -0.195047518359 Rises=F Damp=F
 DIIS: error= 1.21D-02 at cycle   3 NSaved=   3.
 NSaved= 3 IEnMin= 3 EnMin= -1419.24472939676     IErMin= 3 ErrMin= 1.21D-02
 ErrMax= 1.21D-02  0.00D+00 EMaxC= 1.00D-01 BMatC= 1.11D-01 BMatP= 5.08D-01
 IDIUse=3 WtCom= 8.79D-01 WtEn= 1.21D-01
 Coeff-Com: -0.311D+00 0.675D+00 0.636D+00
 Coeff-En:   0.000D+00 0.000D+00 0.100D+01
 Coeff:     -0.273D+00 0.593D+00 0.680D+00
 Gap=     0.251 Goal=   None    Shift=    0.000
 RMSDP=1.79D-03 MaxDP=2.23D-01 DE=-1.95D-01 OVMax= 5.04D-02

 Cycle   4  Pass 1  IDiag  1:
 RMSU=  8.00D-04    CP:  1.02D+00  1.73D+00  8.06D-01
 E= -1419.31757755919     Delta-E=       -0.072848162433 Rises=F Damp=F
 DIIS: error= 3.54D-03 at cycle   4 NSaved=   4.
 NSaved= 4 IEnMin= 4 EnMin= -1419.31757755919     IErMin= 4 ErrMin= 3.54D-03
 ErrMax= 3.54D-03  0.00D+00 EMaxC= 1.00D-01 BMatC= 8.05D-03 BMatP= 1.11D-01
 IDIUse=3 WtCom= 9.65D-01 WtEn= 3.54D-02
 Coeff-Com: -0.116D+00 0.247D+00 0.344D+00 0.525D+00
 Coeff-En:   0.000D+00 0.000D+00 0.000D+00 0.100D+01
 Coeff:     -0.112D+00 0.239D+00 0.332D+00 0.542D+00
 Gap=     0.249 Goal=   None    Shift=    0.000
 RMSDP=5.19D-04 MaxDP=7.16D-02 DE=-7.28D-02 OVMax= 9.60D-03

 Cycle   5  Pass 1  IDiag  1:
 RMSU=  2.73D-04    CP:  1.04D+00  1.73D+00  8.32D-01  6.42D-01
 E= -1419.32283740379     Delta-E=       -0.005259844601 Rises=F Damp=F
 DIIS: error= 4.09D-04 at cycle   5 NSaved=   5.
 NSaved= 5 IEnMin= 5 EnMin= -1419.32283740379     IErMin= 5 ErrMin= 4.09D-04
 ErrMax= 4.09D-04  0.00D+00 EMaxC= 1.00D-01 BMatC= 1.44D-04 BMatP= 8.05D-03
 IDIUse=3 WtCom= 9.96D-01 WtEn= 4.09D-03
 Coeff-Com:  0.144D-01-0.323D-01-0.288D-02 0.954D-01 0.925D+00
 Coeff-En:   0.000D+00 0.000D+00 0.000D+00 0.000D+00 0.100D+01
 Coeff:      0.144D-01-0.322D-01-0.287D-02 0.950D-01 0.926D+00
 Gap=     0.251 Goal=   None    Shift=    0.000
 RMSDP=2.22D-04 MaxDP=3.14D-02 DE=-5.26D-03 OVMax= 6.76D-03

 Cycle   6  Pass 1  IDiag  1:
 RMSU=  1.10D-04    CP:  1.03D+00  1.76D+00  8.51D-01  7.01D-01  1.36D+00
 E= -1419.32305079224     Delta-E=       -0.000213388449 Rises=F Damp=F
 DIIS: error= 3.03D-04 at cycle   6 NSaved=   6.
 NSaved= 6 IEnMin= 6 EnMin= -1419.32305079224     IErMin= 6 ErrMin= 3.03D-04
 ErrMax= 3.03D-04  0.00D+00 EMaxC= 1.00D-01 BMatC= 5.75D-05 BMatP= 1.44D-04
 IDIUse=3 WtCom= 9.97D-01 WtEn= 3.03D-03
 Coeff-Com:  0.223D-01-0.483D-01-0.469D-01-0.326D-01 0.458D+00 0.648D+00
 Coeff-En:   0.000D+00 0.000D+00 0.000D+00 0.000D+00 0.000D+00 0.100D+01
 Coeff:      0.222D-01-0.481D-01-0.467D-01-0.325D-01 0.456D+00 0.649D+00
 Gap=     0.252 Goal=   None    Shift=    0.000
 RMSDP=7.62D-05 MaxDP=8.97D-03 DE=-2.13D-04 OVMax= 2.56D-03

 Cycle   7  Pass 1  IDiag  1:
 RMSU=  3.58D-05    CP:  1.03D+00  1.76D+00  8.53D-01  7.11D-01  1.48D+00
                    CP:  1.07D+00
 E= -1419.32311349896     Delta-E=       -0.000062706719 Rises=F Damp=F
 DIIS: error= 7.37D-05 at cycle   7 NSaved=   7.
 NSaved= 7 IEnMin= 7 EnMin= -1419.32311349896     IErMin= 7 ErrMin= 7.37D-05
 ErrMax= 7.37D-05  0.00D+00 EMaxC= 1.00D-01 BMatC= 3.44D-06 BMatP= 5.75D-05
 IDIUse=1 WtCom= 1.00D+00 WtEn= 0.00D+00
 Coeff-Com:  0.373D-02-0.783D-02-0.115D-01-0.216D-01-0.545D-02 0.152D+00
 Coeff-Com:  0.890D+00
 Coeff:      0.373D-02-0.783D-02-0.115D-01-0.216D-01-0.545D-02 0.152D+00
 Coeff:      0.890D+00
 Gap=     0.252 Goal=   None    Shift=    0.000
 RMSDP=2.43D-05 MaxDP=2.25D-03 DE=-6.27D-05 OVMax= 1.87D-03

 Cycle   8  Pass 1  IDiag  1:
 RMSU=  1.03D-05    CP:  1.03D+00  1.77D+00  8.50D-01  7.07D-01  1.53D+00
                    CP:  1.14D+00  1.22D+00
 E= -1419.32312196213     Delta-E=       -0.000008463163 Rises=F Damp=F
 DIIS: error= 2.94D-05 at cycle   8 NSaved=   8.
 NSaved= 8 IEnMin= 8 EnMin= -1419.32312196213     IErMin= 8 ErrMin= 2.94D-05
 ErrMax= 2.94D-05  0.00D+00 EMaxC= 1.00D-01 BMatC= 9.24D-07 BMatP= 3.44D-06
 IDIUse=1 WtCom= 1.00D+00 WtEn= 0.00D+00
 Coeff-Com: -0.278D-02 0.607D-02 0.472D-02-0.242D-02-0.809D-01-0.619D-01
 Coeff-Com:  0.333D+00 0.805D+00
 Coeff:     -0.278D-02 0.607D-02 0.472D-02-0.242D-02-0.809D-01-0.619D-01
 Coeff:      0.333D+00 0.805D+00
 Gap=     0.252 Goal=   None    Shift=    0.000
 RMSDP=9.55D-06 MaxDP=9.17D-04 DE=-8.46D-06 OVMax= 8.90D-04

 Cycle   9  Pass 1  IDiag  1:
 RMSU=  5.64D-06    CP:  1.03D+00  1.77D+00  8.49D-01  7.07D-01  1.53D+00
                    CP:  1.17D+00  1.36D+00  1.26D+00
 E= -1419.32312387616     Delta-E=       -0.000001914031 Rises=F Damp=F
 DIIS: error= 1.37D-05 at cycle   9 NSaved=   9.
 NSaved= 9 IEnMin= 9 EnMin= -1419.32312387616     IErMin= 9 ErrMin= 1.37D-05
 ErrMax= 1.37D-05  0.00D+00 EMaxC= 1.00D-01 BMatC= 1.37D-07 BMatP= 9.24D-07
 IDIUse=1 WtCom= 1.00D+00 WtEn= 0.00D+00
 Coeff-Com: -0.124D-02 0.264D-02 0.309D-02 0.217D-02-0.168D-01-0.445D-01
 Coeff-Com: -0.746D-01 0.214D+00 0.915D+00
 Coeff:     -0.124D-02 0.264D-02 0.309D-02 0.217D-02-0.168D-01-0.445D-01
 Coeff:     -0.746D-01 0.214D+00 0.915D+00
 Gap=     0.252 Goal=   None    Shift=    0.000
 RMSDP=5.66D-06 MaxDP=8.64D-04 DE=-1.91D-06 OVMax= 4.17D-04

 Cycle  10  Pass 1  IDiag  1:
 RMSU=  3.12D-06    CP:  1.03D+00  1.77D+00  8.49D-01  7.06D-01  1.53D+00
                    CP:  1.16D+00  1.44D+00  1.44D+00  1.15D+00
 E= -1419.32312424062     Delta-E=       -0.000000364460 Rises=F Damp=F
 DIIS: error= 6.15D-06 at cycle  10 NSaved=  10.
 NSaved=10 IEnMin=10 EnMin= -1419.32312424062     IErMin=10 ErrMin= 6.15D-06
 ErrMax= 6.15D-06  0.00D+00 EMaxC= 1.00D-01 BMatC= 1.88D-08 BMatP= 1.37D-07
 IDIUse=1 WtCom= 1.00D+00 WtEn= 0.00D+00
 Coeff-Com:  0.116D-03-0.264D-03 0.566D-04 0.586D-03 0.778D-02-0.453D-02
 Coeff-Com: -0.715D-01-0.539D-01 0.281D+00 0.840D+00
 Coeff:      0.116D-03-0.264D-03 0.566D-04 0.586D-03 0.778D-02-0.453D-02
 Coeff:     -0.715D-01-0.539D-01 0.281D+00 0.840D+00
 Gap=     0.252 Goal=   None    Shift=    0.000
 RMSDP=1.77D-06 MaxDP=1.22D-04 DE=-3.64D-07 OVMax= 1.75D-04

 Cycle  11  Pass 1  IDiag  1:
 RMSU=  9.51D-07    CP:  1.03D+00  1.77D+00  8.49D-01  7.05D-01  1.53D+00
                    CP:  1.15D+00  1.45D+00  1.49D+00  1.22D+00  1.13D+00
 E= -1419.32312429925     Delta-E=       -0.000000058638 Rises=F Damp=F
 DIIS: error= 3.45D-06 at cycle  11 NSaved=  11.
 NSaved=11 IEnMin=11 EnMin= -1419.32312429925     IErMin=11 ErrMin= 3.45D-06
 ErrMax= 3.45D-06  0.00D+00 EMaxC= 1.00D-01 BMatC= 3.26D-09 BMatP= 1.88D-08
 IDIUse=1 WtCom= 1.00D+00 WtEn= 0.00D+00
 Coeff-Com:  0.195D-03-0.418D-03-0.426D-03-0.140D-03 0.406D-02 0.516D-02
 Coeff-Com: -0.330D-02-0.412D-01-0.916D-01 0.189D+00 0.939D+00
 Coeff:      0.195D-03-0.418D-03-0.426D-03-0.140D-03 0.406D-02 0.516D-02
 Coeff:     -0.330D-02-0.412D-01-0.916D-01 0.189D+00 0.939D+00
 Gap=     0.252 Goal=   None    Shift=    0.000
 RMSDP=1.11D-06 MaxDP=1.46D-04 DE=-5.86D-08 OVMax= 5.84D-05

 Cycle  12  Pass 1  IDiag  1:
 RMSU=  3.96D-07    CP:  1.03D+00  1.77D+00  8.49D-01  7.05D-01  1.53D+00
                    CP:  1.15D+00  1.45D+00  1.49D+00  1.21D+00  1.36D+00
                    CP:  1.40D+00
 E= -1419.32312431184     Delta-E=       -0.000000012590 Rises=F Damp=F
 DIIS: error= 1.81D-06 at cycle  12 NSaved=  12.
 NSaved=12 IEnMin=12 EnMin= -1419.32312431184     IErMin=12 ErrMin= 1.81D-06
 ErrMax= 1.81D-06  0.00D+00 EMaxC= 1.00D-01 BMatC= 5.18D-10 BMatP= 3.26D-09
 IDIUse=1 WtCom= 1.00D+00 WtEn= 0.00D+00
 Coeff-Com:  0.149D-04-0.301D-04-0.893D-04-0.107D-03-0.646D-03 0.204D-02
 Coeff-Com:  0.139D-01 0.384D-02-0.829D-01-0.100D+00 0.181D+00 0.983D+00
 Coeff:      0.149D-04-0.301D-04-0.893D-04-0.107D-03-0.646D-03 0.204D-02
 Coeff:      0.139D-01 0.384D-02-0.829D-01-0.100D+00 0.181D+00 0.983D+00
 Gap=     0.252 Goal=   None    Shift=    0.000
 RMSDP=7.34D-07 MaxDP=8.32D-05 DE=-1.26D-08 OVMax= 3.37D-05

 Cycle  13  Pass 1  IDiag  1:
 RMSU=  2.57D-07    CP:  1.03D+00  1.77D+00  8.49D-01  7.04D-01  1.53D+00
                    CP:  1.15D+00  1.45D+00  1.48D+00  1.18D+00  1.48D+00
                    CP:  1.65D+00  1.50D+00
 E= -1419.32312431499     Delta-E=       -0.000000003149 Rises=F Damp=F
 DIIS: error= 6.88D-07 at cycle  13 NSaved=  13.
 NSaved=13 IEnMin=13 EnMin= -1419.32312431499     IErMin=13 ErrMin= 6.88D-07
 ErrMax= 6.88D-07  0.00D+00 EMaxC= 1.00D-01 BMatC= 1.23D-10 BMatP= 5.18D-10
 IDIUse=1 WtCom= 1.00D+00 WtEn= 0.00D+00
 Coeff-Com: -0.242D-04 0.524D-04 0.482D-04-0.178D-04-0.770D-03-0.506D-03
 Coeff-Com:  0.230D-02 0.802D-02-0.210D-02-0.416D-01-0.163D+00 0.175D+00
 Coeff-Com:  0.102D+01
 Coeff:     -0.242D-04 0.524D-04 0.482D-04-0.178D-04-0.770D-03-0.506D-03
 Coeff:      0.230D-02 0.802D-02-0.210D-02-0.416D-01-0.163D+00 0.175D+00
 Coeff:      0.102D+01
 Gap=     0.252 Goal=   None    Shift=    0.000
 RMSDP=4.98D-07 MaxDP=5.43D-05 DE=-3.15D-09 OVMax= 1.84D-05

 Cycle  14  Pass 1  IDiag  1:
 RMSU=  8.05D-08    CP:  1.03D+00  1.77D+00  8.49D-01  7.04D-01  1.53D+00
                    CP:  1.15D+00  1.44D+00  1.48D+00  1.16D+00  1.55D+00
                    CP:  1.77D+00  1.90D+00  1.60D+00
 E= -1419.32312431528     Delta-E=       -0.000000000289 Rises=F Damp=F
 DIIS: error= 2.80D-07 at cycle  14 NSaved=  14.
 NSaved=14 IEnMin=14 EnMin= -1419.32312431528     IErMin=14 ErrMin= 2.80D-07
 ErrMax= 2.80D-07  0.00D+00 EMaxC= 1.00D-01 BMatC= 2.46D-11 BMatP= 1.23D-10
 IDIUse=1 WtCom= 1.00D+00 WtEn= 0.00D+00
 Coeff-Com: -0.702D-05 0.150D-04 0.254D-04 0.293D-05-0.995D-04-0.415D-03
 Coeff-Com: -0.162D-02 0.235D-02 0.133D-01 0.622D-02-0.860D-01-0.106D+00
 Coeff-Com:  0.330D+00 0.843D+00
 Coeff:     -0.702D-05 0.150D-04 0.254D-04 0.293D-05-0.995D-04-0.415D-03
 Coeff:     -0.162D-02 0.235D-02 0.133D-01 0.622D-02-0.860D-01-0.106D+00
 Coeff:      0.330D+00 0.843D+00
 Gap=     0.252 Goal=   None    Shift=    0.000
 RMSDP=1.58D-07 MaxDP=2.01D-05 DE=-2.89D-10 OVMax= 5.77D-06

 Cycle  15  Pass 1  IDiag  1:
 RMSU=  3.86D-08    CP:  1.03D+00  1.77D+00  8.49D-01  7.04D-01  1.53D+00
                    CP:  1.15D+00  1.44D+00  1.47D+00  1.16D+00  1.56D+00
                    CP:  1.81D+00  2.07D+00  1.81D+00  1.16D+00
 E= -1419.32312431556     Delta-E=       -0.000000000276 Rises=F Damp=F
 DIIS: error= 9.40D-08 at cycle  15 NSaved=  15.
 NSaved=15 IEnMin=15 EnMin= -1419.32312431556     IErMin=15 ErrMin= 9.40D-08
 ErrMax= 9.40D-08  0.00D+00 EMaxC= 1.00D-01 BMatC= 3.43D-12 BMatP= 2.46D-11
 IDIUse=1 WtCom= 1.00D+00 WtEn= 0.00D+00
 Coeff-Com:  0.150D-05-0.332D-05 0.262D-06 0.647D-05 0.878D-04-0.249D-04
 Coeff-Com: -0.867D-03-0.806D-03 0.357D-02 0.884D-02 0.102D-01-0.598D-01
 Coeff-Com: -0.126D+00 0.232D+00 0.933D+00
 Coeff:      0.150D-05-0.332D-05 0.262D-06 0.647D-05 0.878D-04-0.249D-04
 Coeff:     -0.867D-03-0.806D-03 0.357D-02 0.884D-02 0.102D-01-0.598D-01
 Coeff:     -0.126D+00 0.232D+00 0.933D+00
 Gap=     0.252 Goal=   None    Shift=    0.000
 RMSDP=9.69D-08 MaxDP=8.04D-06 DE=-2.76D-10 OVMax= 3.01D-06

 Cycle  16  Pass 1  IDiag  1:
 RMSU=  2.13D-08    CP:  1.03D+00  1.77D+00  8.49D-01  7.04D-01  1.53D+00
                    CP:  1.15D+00  1.44D+00  1.47D+00  1.15D+00  1.57D+00
                    CP:  1.81D+00  2.14D+00  1.94D+00  1.41D+00  1.34D+00
 E= -1419.32312431511     Delta-E=        0.000000000447 Rises=F Damp=F
 DIIS: error= 2.25D-08 at cycle  16 NSaved=  16.
 NSaved=16 IEnMin=15 EnMin= -1419.32312431556     IErMin=16 ErrMin= 2.25D-08
 ErrMax= 2.25D-08  0.00D+00 EMaxC= 1.00D-01 BMatC= 6.70D-13 BMatP= 3.43D-12
 IDIUse=1 WtCom= 1.00D+00 WtEn= 0.00D+00
 Coeff-Com:  0.838D-06-0.184D-05-0.202D-05 0.301D-05 0.367D-04 0.373D-04
 Coeff-Com: -0.800D-04-0.516D-03-0.358D-03 0.198D-02 0.137D-01-0.585D-02
 Coeff-Com: -0.793D-01-0.498D-01 0.292D+00 0.828D+00
 Coeff:      0.838D-06-0.184D-05-0.202D-05 0.301D-05 0.367D-04 0.373D-04
 Coeff:     -0.800D-04-0.516D-03-0.358D-03 0.198D-02 0.137D-01-0.585D-02
 Coeff:     -0.793D-01-0.498D-01 0.292D+00 0.828D+00
 Gap=     0.252 Goal=   None    Shift=    0.000
 RMSDP=2.85D-08 MaxDP=2.35D-06 DE= 4.47D-10 OVMax= 1.03D-06

 Cycle  17  Pass 1  IDiag  1:
 RMSU=  1.63D-08    CP:  1.03D+00  1.77D+00  8.49D-01  7.04D-01  1.53D+00
                    CP:  1.15D+00  1.44D+00  1.47D+00  1.15D+00  1.57D+00
                    CP:  1.82D+00  2.16D+00  1.97D+00  1.46D+00  1.63D+00
                    CP:  1.49D+00
 E= -1419.32312431523     Delta-E=       -0.000000000119 Rises=F Damp=F
 DIIS: error= 1.47D-08 at cycle  17 NSaved=  17.
 NSaved=17 IEnMin=15 EnMin= -1419.32312431556     IErMin=17 ErrMin= 1.47D-08
 ErrMax= 1.47D-08  0.00D+00 EMaxC= 1.00D-01 BMatC= 1.06D-13 BMatP= 6.70D-13
 IDIUse=1 WtCom= 1.00D+00 WtEn= 0.00D+00
 Coeff-Com: -0.857D-07 0.201D-06-0.651D-06-0.748D-06-0.759D-05 0.142D-04
 Coeff-Com:  0.149D-03 0.160D-04-0.810D-03-0.134D-02 0.166D-02 0.103D-01
 Coeff-Com:  0.403D-02-0.624D-01-0.731D-01 0.202D+00 0.919D+00
 Coeff:     -0.857D-07 0.201D-06-0.651D-06-0.748D-06-0.759D-05 0.142D-04
 Coeff:      0.149D-03 0.160D-04-0.810D-03-0.134D-02 0.166D-02 0.103D-01
 Coeff:      0.403D-02-0.624D-01-0.731D-01 0.202D+00 0.919D+00
 Gap=     0.252 Goal=   None    Shift=    0.000
 RMSDP=3.18D-08 MaxDP=3.59D-06 DE=-1.19D-10 OVMax= 6.26D-07

 Cycle  18  Pass 1  IDiag  1:
 RMSU=  1.69D-08    CP:  1.03D+00  1.77D+00  8.49D-01  7.04D-01  1.53D+00
                    CP:  1.15D+00  1.44D+00  1.47D+00  1.15D+00  1.57D+00
                    CP:  1.82D+00  2.18D+00  1.96D+00  1.45D+00  1.79D+00
                    CP:  1.89D+00  2.16D+00
 E= -1419.32312431492     Delta-E=        0.000000000309 Rises=F Damp=F
 DIIS: error= 8.75D-09 at cycle  18 NSaved=  18.
 NSaved=18 IEnMin=15 EnMin= -1419.32312431556     IErMin=18 ErrMin= 8.75D-09
 ErrMax= 8.75D-09  0.00D+00 EMaxC= 1.00D-01 BMatC= 4.05D-14 BMatP= 1.06D-13
 IDIUse=1 WtCom= 1.00D+00 WtEn= 0.00D+00
 Coeff-Com: -0.715D-07 0.162D-06-0.403D-07-0.961D-06-0.515D-05-0.117D-05
 Coeff-Com:  0.495D-04 0.712D-04-0.160D-03-0.594D-03-0.129D-02 0.359D-02
 Coeff-Com:  0.119D-01-0.134D-01-0.551D-01-0.731D-01 0.233D+00 0.895D+00
 Coeff:     -0.715D-07 0.162D-06-0.403D-07-0.961D-06-0.515D-05-0.117D-05
 Coeff:      0.495D-04 0.712D-04-0.160D-03-0.594D-03-0.129D-02 0.359D-02
 Coeff:      0.119D-01-0.134D-01-0.551D-01-0.731D-01 0.233D+00 0.895D+00
 Gap=     0.252 Goal=   None    Shift=    0.000
 RMSDP=4.96D-08 MaxDP=6.78D-06 DE= 3.09D-10 OVMax= 3.64D-07

 Cycle  19  Pass 1  IDiag  1:
 RMSU=  2.09D-08    CP:  1.03D+00  1.77D+00  8.49D-01  7.04D-01  1.53D+00
                    CP:  1.15D+00  1.44D+00  1.47D+00  1.15D+00  1.57D+00
                    CP:  1.82D+00  2.19D+00  1.95D+00  1.43D+00  1.92D+00
                    CP:  2.08D+00  3.00D+00  2.62D+00
 E= -1419.32312431518     Delta-E=       -0.000000000256 Rises=F Damp=F
 DIIS: error= 7.88D-09 at cycle  19 NSaved=  19.
 NSaved=19 IEnMin=15 EnMin= -1419.32312431556     IErMin=19 ErrMin= 7.88D-09
 ErrMax= 7.88D-09  0.00D+00 EMaxC= 1.00D-01 BMatC= 3.97D-14 BMatP= 4.05D-14
 IDIUse=1 WtCom= 1.00D+00 WtEn= 0.00D+00
 Coeff-Com: -0.566D-07 0.127D-06-0.329D-07-0.727D-06-0.390D-05-0.987D-06
 Coeff-Com:  0.382D-04 0.531D-04-0.127D-03-0.463D-03-0.950D-03 0.279D-02
 Coeff-Com:  0.885D-02-0.109D-01-0.415D-01-0.511D-01 0.177D+00 0.649D+00
 Coeff-Com:  0.267D+00
 Coeff:     -0.566D-07 0.127D-06-0.329D-07-0.727D-06-0.390D-05-0.987D-06
 Coeff:      0.382D-04 0.531D-04-0.127D-03-0.463D-03-0.950D-03 0.279D-02
 Coeff:      0.885D-02-0.109D-01-0.415D-01-0.511D-01 0.177D+00 0.649D+00
 Coeff:      0.267D+00
 Gap=     0.252 Goal=   None    Shift=    0.000
 RMSDP=1.61D-08 MaxDP=1.57D-06 DE=-2.56D-10 OVMax= 4.94D-08

 Cycle  20  Pass 1  IDiag  1:
 RMSU=  6.01D-09    CP:  1.03D+00  1.77D+00  8.49D-01  7.04D-01  1.53D+00
                    CP:  1.15D+00  1.44D+00  1.47D+00  1.15D+00  1.57D+00
                    CP:  1.82D+00  2.19D+00  1.94D+00  1.44D+00  1.93D+00
                    CP:  2.14D+00  3.00D+00  3.00D+00  1.54D+00
 E= -1419.32312431520     Delta-E=       -0.000000000024 Rises=F Damp=F
 DIIS: error= 1.14D-08 at cycle  20 NSaved=  20.
 NSaved=20 IEnMin=15 EnMin= -1419.32312431556     IErMin=19 ErrMin= 7.88D-09
 ErrMax= 1.14D-08  0.00D+00 EMaxC= 1.00D-01 BMatC= 5.14D-14 BMatP= 3.97D-14
 IDIUse=1 WtCom= 1.00D+00 WtEn= 0.00D+00
 Large coefficients: NSaved= 20 BigCof=    0.00 CofMax=   10.00 Det=-4.49D-15
 Inversion failed.  Reducing to 19 matrices.
 Large coefficients: NSaved= 19 BigCof=    0.00 CofMax=   10.00 Det=-4.49D-15
 Inversion failed.  Reducing to 18 matrices.
 Large coefficients: NSaved= 18 BigCof=    0.00 CofMax=   10.00 Det=-4.50D-15
 Inversion failed.  Reducing to 17 matrices.
 Large coefficients: NSaved= 17 BigCof=    0.00 CofMax=   10.00 Det=-4.56D-15
 Inversion failed.  Reducing to 16 matrices.
 Large coefficients: NSaved= 16 BigCof=    0.00 CofMax=   10.00 Det=-4.57D-15
 Inversion failed.  Reducing to 15 matrices.
 Coeff-Com: -0.767D-06 0.153D-04 0.173D-04-0.947D-04-0.278D-03-0.390D-03
 Coeff-Com:  0.215D-02 0.534D-02-0.105D-01-0.300D-01-0.370D-01 0.147D+00
 Coeff-Com:  0.603D+00 0.588D+00-0.267D+00
 Coeff:     -0.767D-06 0.153D-04 0.173D-04-0.947D-04-0.278D-03-0.390D-03
 Coeff:      0.215D-02 0.534D-02-0.105D-01-0.300D-01-0.370D-01 0.147D+00
 Coeff:      0.603D+00 0.588D+00-0.267D+00
 Gap=     0.252 Goal=   None    Shift=    0.000
 RMSDP=7.38D-09 MaxDP=5.61D-07 DE=-2.36D-11 OVMax= 5.43D-09

 Error on total polarization charges =  0.02061
 SCF Done:  E(RCAM-B3LYP) =  -1419.32312432     A.U. after   20 cycles
            NFock= 20  Conv=0.74D-08     -V/T= 2.0041
 KE= 1.413481934812D+03 PE=-9.943362104722D+03 EE= 3.778629938411D+03
 Leave Link  502 at Sat May  2 11:11:16 2020, MaxMem=  6710886400 cpu:     14587.1
 (Enter /opt/sys/apps/gaussian09/D.01/g09/l801.exe)
 DoSCS=F DFT=T ScalE2(SS,OS)=  1.000000  1.000000
 ExpMin= 3.60D-02 ExpMax= 8.59D+03 ExpMxC= 1.30D+03 IAcc=3 IRadAn=         5 AccDes= 0.00D+00
 HarFok:  IExCor=  205 AccDes= 0.00D+00 IRadAn=         5 IDoV=-2 UseB2=F ITyADJ=14
 ICtDFT= 12500011 ScaDFX=  1.000000  1.000000  1.000000  1.000000
 Largest valence mixing into a core orbital is  4.58D-05
 Largest core mixing into a valence orbital is  1.03D-05
 Range of M.O.s used for correlation:    34   926
 NBasis=   943 NAE=   118 NBE=   118 NFC=    33 NFV=     0
 NROrb=    893 NOA=    85 NOB=    85 NVA=   808 NVB=   808

 **** Warning!!: The largest alpha MO coefficient is  0.88030375D+02

 Leave Link  801 at Sat May  2 11:11:18 2020, MaxMem=  6710886400 cpu:        11.1
 (Enter /opt/sys/apps/gaussian09/D.01/g09/l914.exe)
 RHF ground state
 MDV=  6710886400 DFT=T DoStab=F Mixed=T DoRPA=T DoScal=F NonHer=T
 Would need an additional        599111800000 words for in-memory AO integral storage.
 NEqPCM:  Using non-equilibrium solvation (IEInf=1, Eps=  24.8520, EpsInf=   1.8526)
 Inv3:  Mode=1 IEnd=    60588108.
 Iteration    1 A*A^-1 deviation from unit magnitude is 7.44D-15 for   4472.
 Iteration    1 A*A^-1 deviation from orthogonality  is 5.22D-15 for   4490   4369.
 Iteration    1 A^-1*A deviation from unit magnitude is 7.44D-15 for   4472.
 Iteration    1 A^-1*A deviation from orthogonality  is 3.56D-15 for   3758   2591.
 Making orbital integer symmetry assigments:
   120 initial guesses have been made.
 Convergence on wavefunction:    0.000001000000000
 Davidson Disk Diagonalization:  ConvIn= 1.00D-06 SkipCon=T Conv= 1.00D-06.
 Max sub-space:   480 roots to seek:   120 dimension of matrix:       137360
 Iteration     1 Dimension   120 NMult     0 NNew    120
 CISAX will form   120 AO SS matrices at one time.
 NMat=   120 NSing=   120 JSym2X= 0.
 FoFJK:  IHMeth= 1 ICntrl=       0 DoSepK=T KAlg= 0 I1Cent=   0 FoldK=F
 IRaf=         1 NMat= 240 IRICut=       1 DoRegI=T DoRafI=F ISym2E= 0.
 New state      3 was old state     14
 New state      5 was old state      7
 New state      6 was old state      3
 New state      7 was old state      9
 New state      8 was old state     38
 New state      9 was old state     10
 New state     10 was old state     22
 New state     11 was old state      5
 New state     12 was old state    113
 New state     13 was old state      6
 New state     14 was old state     18
 New state     15 was old state     43
 New state     16 was old state     30
 New state     17 was old state     12
 New state     18 was old state     13
 New state     19 was old state     11
 New state     20 was old state     19
 New state     21 was old state     15
 New state     22 was old state     37
 New state     23 was old state     17
 New state     24 was old state     99
 New state     25 was old state     23
 New state     26 was old state     25
 New state     27 was old state     21
 New state     28 was old state     55
 New state     29 was old state     31
 New state     30 was old state     16
 Excitation Energies [eV] at current iteration:
 Root      1 :     3.574945614210646
 Root      2 :     4.475130805991719
 Root      3 :     5.205826344991374
 Root      4 :     5.397707102120518
 Root      5 :     5.490134439286176
 Root      6 :     5.520987799345027
 Root      7 :     5.738657535922323
 Root      8 :     5.808359382452342
 Root      9 :     5.940880930114884
 Root     10 :     5.974970434691071
 Root     11 :     6.026224328626194
 Root     12 :     6.208852542203751
 Root     13 :     6.349265503137683
 Root     14 :     6.382568918758565
 Root     15 :     6.416181883651716
 Root     16 :     6.605134690832294
 Root     17 :     6.655758817326298
 Root     18 :     6.680237407296331
 Root     19 :     6.718743091075205
 Root     20 :     6.823300273833522
 Root     21 :     6.881175505824760
 Root     22 :     6.891610240076361
 Root     23 :     7.017604202828652
 Root     24 :     7.118141406978530
 Root     25 :     7.176021640641590
 Root     26 :     7.212400011467149
 Root     27 :     7.242137099903088
 Root     28 :     7.324624416017036
 Root     29 :     7.398415784544204
 Root     30 :     7.420512815979468
 Root     31 :     7.486602021450914
 Root     32 :     7.562249631566991
 Root     33 :     7.594973671215056
 Root     34 :     7.615416410194609
 Root     35 :     7.649502132016009
 Root     36 :     7.697374729590751
 Root     37 :     7.736885016340881
 Root     38 :     7.757095156749871
 Root     39 :     7.769744143463751
 Root     40 :     7.777545164814673
 Root     41 :     7.825397455316448
 Root     42 :     7.844609729520093
 Root     43 :     7.853829917367584
 Root     44 :     7.891165654558765
 Root     45 :     7.894988482017716
 Root     46 :     7.921391226267645
 Root     47 :     8.001556120264555
 Root     48 :     8.020448540502375
 Root     49 :     8.031097629928784
 Root     50 :     8.073630180407509
 Root     51 :     8.108996794971500
 Root     52 :     8.140212497151150
 Root     53 :     8.182693427036462
 Root     54 :     8.236089766156065
 Root     55 :     8.241647127545217
 Root     56 :     8.258189386340744
 Root     57 :     8.338925667299119
 Root     58 :     8.370107925296384
 Root     59 :     8.397506454581377
 Root     60 :     8.410292635742680
 Root     61 :     8.433134985090733
 Root     62 :     8.455866559252261
 Root     63 :     8.482778613979365
 Root     64 :     8.532594696679194
 Root     65 :     8.542896442187120
 Root     66 :     8.578448594428014
 Root     67 :     8.606493467696072
 Root     68 :     8.619809263105827
 Root     69 :     8.670812480259546
 Root     70 :     8.687393767182479
 Root     71 :     8.719247608452420
 Root     72 :     8.726427493021662
 Root     73 :     8.762279258615482
 Root     74 :     8.774235393893951
 Root     75 :     8.793761664882114
 Root     76 :     8.801245997928472
 Root     77 :     8.826099440717185
 Root     78 :     8.841941351371375
 Root     79 :     8.879960616338606
 Root     80 :     8.888323659122621
 Root     81 :     8.902085471532510
 Root     82 :     8.933483078786619
 Root     83 :     8.945556860024404
 Root     84 :     8.948145709337076
 Root     85 :     8.963404350885806
 Root     86 :     9.000227354397500
 Root     87 :     9.016766226083023
 Root     88 :     9.045012824937613
 Root     89 :     9.077363077854146
 Root     90 :     9.087831120690165
 Root     91 :     9.097117812913041
 Root     92 :     9.103306683068521
 Root     93 :     9.146427397152570
 Root     94 :     9.166972816360817
 Root     95 :     9.192860933318203
 Root     96 :     9.224995144501332
 Root     97 :     9.251785696717999
 Root     98 :     9.267129318148633
 Root     99 :     9.284460344511027
 Root    100 :     9.302589639068882
 Root    101 :     9.331910853039661
 Root    102 :     9.371589621651529
 Root    103 :     9.414481312104167
 Root    104 :     9.430325175049457
 Root    105 :     9.473051589565387
 Root    106 :     9.483096137541260
 Root    107 :     9.502665360186429
 Root    108 :     9.517392953759414
 Root    109 :     9.521869088649076
 Root    110 :     9.546502048063562
 Root    111 :     9.599203340134711
 Root    112 :     9.645332868856251
 Root    113 :     9.660446319768839
 Root    114 :     9.706678532500680
 Root    115 :     9.715811395261410
 Root    116 :     9.736197757958493
 Root    117 :     9.830864023081972
 Root    118 :     9.863049184347137
 Root    119 :     9.900917612446966
 Root    120 :     9.938737446766254
 Iteration     2 Dimension   180 NMult   120 NNew     60
 CISAX will form    60 AO SS matrices at one time.
 NMat=    60 NSing=    60 JSym2X= 0.
 Root      1 not converged, maximum delta is    0.038668551958243
 Root      2 not converged, maximum delta is    0.033330301105700
 Root      3 not converged, maximum delta is    0.424001131478459
 Root      4 not converged, maximum delta is    0.392640141529131
 Root      5 not converged, maximum delta is    0.166907730613875
 Root      6 not converged, maximum delta is    0.336870008237131
 New state      7 was old state      9
 Root      7 not converged, maximum delta is    0.167638996434362
 New state      8 was old state     12
 Root      8 not converged, maximum delta is    0.419880699925148
 New state      9 was old state      8
 Root      9 not converged, maximum delta is    0.439343987907543
 Root     10 not converged, maximum delta is    0.244434616891748
 New state     11 was old state      7
 Root     11 not converged, maximum delta is    0.222499126517174
 New state     12 was old state     15
 Root     12 not converged, maximum delta is    0.283548514924999
 New state     13 was old state     11
 Root     13 not converged, maximum delta is    0.097955440047023
 Root     14 not converged, maximum delta is    0.189346773978672
 New state     15 was old state     13
 Root     15 not converged, maximum delta is    0.087943751939435
 New state     16 was old state     19
 Root     16 not converged, maximum delta is    0.291591538415654
 New state     17 was old state     16
 Root     17 not converged, maximum delta is    0.261149537280762
 New state     18 was old state     28
 Root     18 not converged, maximum delta is    0.348533543309282
 New state     19 was old state     24
 Root     19 not converged, maximum delta is    0.289394745986124
 New state     20 was old state     17
 Root     20 not converged, maximum delta is    0.209722893025575
 New state     21 was old state     18
 Root     21 not converged, maximum delta is    0.400298081894041
 New state     22 was old state     21
 Root     22 not converged, maximum delta is    0.176234976710340
 New state     23 was old state     22
 Root     23 not converged, maximum delta is    0.242137832940743
 New state     24 was old state     23
 Root     24 not converged, maximum delta is    0.128127033960672
 New state     25 was old state     20
 Root     25 not converged, maximum delta is    0.203929095581766
 New state     26 was old state     25
 Root     26 not converged, maximum delta is    0.167462122743078
 Root     27 not converged, maximum delta is    0.196732707186433
 New state     28 was old state     26
 Root     28 not converged, maximum delta is    0.173136388345415
 Root     29 not converged, maximum delta is    0.193671774816279
 Root     30 not converged, maximum delta is    0.122872990362260
 Excitation Energies [eV] at current iteration:
 Root      1 :     3.034989970484270   Change is   -0.539955643726376
 Root      2 :     4.002719789514042   Change is   -0.472411016477678
 Root      3 :     4.799468301024009   Change is   -0.406358043967365
 Root      4 :     4.811955527800840   Change is   -0.585751574319679
 Root      5 :     5.126320530445387   Change is   -0.363813908840789
 Root      6 :     5.168670770591389   Change is   -0.352317028753638
 Root      7 :     5.265279287296532   Change is   -0.675601642818352
 Root      8 :     5.461083934092826   Change is   -0.747768608110924
 Root      9 :     5.477363786658899   Change is   -0.330995595793442
 Root     10 :     5.539876242997052   Change is   -0.435094191694018
 Root     11 :     5.625523550119857   Change is   -0.113133985802466
 Root     12 :     5.678935070853862   Change is   -0.737246812797854
 Root     13 :     5.794348755709763   Change is   -0.231875572916430
 Root     14 :     5.813087517490913   Change is   -0.569481401267652
 Root     15 :     6.063236547941281   Change is   -0.286028955196402
 Root     16 :     6.154856853872129   Change is   -0.563886237203076
 Root     17 :     6.284883581258303   Change is   -0.320251109573992
 Root     18 :     6.406564803256956   Change is   -0.918059612760079
 Root     19 :     6.430024650923438   Change is   -0.688116756055091
 Root     20 :     6.452928489782582   Change is   -0.202830327543716
 Root     21 :     6.496208634292963   Change is   -0.184028773003368
 Root     22 :     6.588916758166881   Change is   -0.292258747657878
 Root     23 :     6.648329102873729   Change is   -0.243281137202633
 Root     24 :     6.706690526747688   Change is   -0.310913676080964
 Root     25 :     6.738166511008960   Change is   -0.085133762824562
 Root     26 :     6.907786666457544   Change is   -0.268234974184046
 Root     27 :     6.977181675403683   Change is   -0.264955424499405
 Root     28 :     7.017942671838036   Change is   -0.194457339629114
 Root     29 :     7.052092115134440   Change is   -0.346323669409764
 Root     30 :     7.144135626089076   Change is   -0.276377189890392
 Iteration     3 Dimension   240 NMult   180 NNew     60
 CISAX will form    60 AO SS matrices at one time.
 NMat=    60 NSing=    60 JSym2X= 0.
 Root      1 not converged, maximum delta is    0.003608694542381
 Root      2 not converged, maximum delta is    0.011837732340237
 Root      3 not converged, maximum delta is    0.191755638664821
 Root      4 not converged, maximum delta is    0.209506661129642
 Root      5 not converged, maximum delta is    0.048863101731119
 Root      6 not converged, maximum delta is    0.064129475403365
 Root      7 not converged, maximum delta is    0.039657676679137
 New state      8 was old state      9
 Root      8 not converged, maximum delta is    0.358968858764668
 New state      9 was old state      8
 Root      9 not converged, maximum delta is    0.348092548755520
 Root     10 not converged, maximum delta is    0.048727359142825
 Root     11 not converged, maximum delta is    0.119772709027673
 Root     12 not converged, maximum delta is    0.093861077943496
 New state     13 was old state     14
 Root     13 not converged, maximum delta is    0.147337922811980
 New state     14 was old state     13
 Root     14 not converged, maximum delta is    0.083246317837014
 Root     15 not converged, maximum delta is    0.013183791588013
 Root     16 not converged, maximum delta is    0.021014487479549
 Root     17 not converged, maximum delta is    0.024918291268395
 Root     18 not converged, maximum delta is    0.155916091889559
 Root     19 not converged, maximum delta is    0.110090688721853
 Root     20 not converged, maximum delta is    0.074351948416182
 Root     21 not converged, maximum delta is    0.089645967795514
 Root     22 not converged, maximum delta is    0.057017914854655
 Root     23 not converged, maximum delta is    0.061488236631110
 Root     24 not converged, maximum delta is    0.062585617470287
 Root     25 not converged, maximum delta is    0.092839189824943
 New state     26 was old state     30
 Root     26 not converged, maximum delta is    0.204742546133653
 New state     27 was old state     26
 Root     27 not converged, maximum delta is    0.117394160996041
 New state     28 was old state     27
 Root     28 not converged, maximum delta is    0.090906627012594
 New state     29 was old state     28
 Root     29 not converged, maximum delta is    0.243993814132163
 New state     30 was old state     29
 Root     30 not converged, maximum delta is    0.293810113023595
 Excitation Energies [eV] at current iteration:
 Root      1 :     3.008669891172087   Change is   -0.026320079312182
 Root      2 :     3.975751615732078   Change is   -0.026968173781963
 Root      3 :     4.769908521216167   Change is   -0.029559779807842
 Root      4 :     4.791317447438221   Change is   -0.020638080362618
 Root      5 :     5.108585994317925   Change is   -0.017734536127462
 Root      6 :     5.139463019441998   Change is   -0.029207751149391
 Root      7 :     5.221295778477001   Change is   -0.043983508819532
 Root      8 :     5.369754037535152   Change is   -0.107609749123747
 Root      9 :     5.454951221474919   Change is   -0.006132712617907
 Root     10 :     5.522149433664860   Change is   -0.017726809332193
 Root     11 :     5.615155431147898   Change is   -0.010368118971960
 Root     12 :     5.654341353296892   Change is   -0.024593717556970
 Root     13 :     5.776051435848326   Change is   -0.037036081642587
 Root     14 :     5.784580896920084   Change is   -0.009767858789679
 Root     15 :     6.043105883426295   Change is   -0.020130664514985
 Root     16 :     6.105948562674000   Change is   -0.048908291198128
 Root     17 :     6.251793834031565   Change is   -0.033089747226738
 Root     18 :     6.323736960637534   Change is   -0.082827842619423
 Root     19 :     6.388797408469581   Change is   -0.041227242453857
 Root     20 :     6.427557410563049   Change is   -0.025371079219533
 Root     21 :     6.470631150674067   Change is   -0.025577483618897
 Root     22 :     6.560380337451082   Change is   -0.028536420715800
 Root     23 :     6.614875450706669   Change is   -0.033453652167060
 Root     24 :     6.675266317493930   Change is   -0.031424209253758
 Root     25 :     6.697268639968302   Change is   -0.040897871040658
 Root     26 :     6.784613824005758   Change is   -0.359521802083318
 Root     27 :     6.853791854108771   Change is   -0.053994812348773
 Root     28 :     6.946918798616129   Change is   -0.030262876787554
 Root     29 :     6.964375391779891   Change is   -0.053567280058144
 Root     30 :     6.993584988356114   Change is   -0.058507126778326
 Iteration     4 Dimension   300 NMult   240 NNew     60
 CISAX will form    60 AO SS matrices at one time.
 NMat=    60 NSing=    60 JSym2X= 0.
 Root      1 not converged, maximum delta is    0.000895217521945
 Root      2 not converged, maximum delta is    0.001821348205892
 Root      3 not converged, maximum delta is    0.012546820625551
 Root      4 not converged, maximum delta is    0.013787829389128
 Root      5 not converged, maximum delta is    0.005210195790089
 Root      6 not converged, maximum delta is    0.002517690024176
 Root      7 not converged, maximum delta is    0.003594711804527
 Root      8 not converged, maximum delta is    0.007843141730700
 Root      9 not converged, maximum delta is    0.004262535813959
 Root     10 not converged, maximum delta is    0.002627545921425
 Root     11 not converged, maximum delta is    0.013476195584552
 Root     12 not converged, maximum delta is    0.011216799999863
 Root     13 not converged, maximum delta is    0.042496575751213
 Root     14 not converged, maximum delta is    0.023956921021126
 Root     15 not converged, maximum delta is    0.003690331156861
 Root     16 not converged, maximum delta is    0.008955727808062
 Root     17 not converged, maximum delta is    0.009339490084379
 Root     18 not converged, maximum delta is    0.007700651228516
 Root     19 not converged, maximum delta is    0.014910635566257
 Root     20 not converged, maximum delta is    0.011792048039759
 Root     21 not converged, maximum delta is    0.021888818125840
 Root     22 not converged, maximum delta is    0.017077716510833
 Root     23 not converged, maximum delta is    0.006836098169453
 Root     24 not converged, maximum delta is    0.218031777340081
 New state     25 was old state     26
 Root     25 not converged, maximum delta is    0.209734235961430
 New state     26 was old state     25
 Root     26 not converged, maximum delta is    0.280735375120971
 Root     27 not converged, maximum delta is    0.343808782012504
 New state     28 was old state     29
 Root     28 not converged, maximum delta is    0.208152991534290
 New state     29 was old state     28
 Root     29 not converged, maximum delta is    0.175710429836136
 Root     30 not converged, maximum delta is    0.317103579364145
 Excitation Energies [eV] at current iteration:
 Root      1 :     3.007608874374649   Change is   -0.001061016797438
 Root      2 :     3.973920746545262   Change is   -0.001830869186817
 Root      3 :     4.766913710258698   Change is   -0.002994810957469
 Root      4 :     4.790206234975916   Change is   -0.001111212462305
 Root      5 :     5.106671721269630   Change is   -0.001914273048295
 Root      6 :     5.137304014422189   Change is   -0.002159005019809
 Root      7 :     5.218034616369392   Change is   -0.003261162107608
 Root      8 :     5.361519324254714   Change is   -0.008234713280439
 Root      9 :     5.453792777959974   Change is   -0.001158443514945
 Root     10 :     5.520817972781385   Change is   -0.001331460883474
 Root     11 :     5.614019117564427   Change is   -0.001136313583470
 Root     12 :     5.652382759329520   Change is   -0.001958593967373
 Root     13 :     5.770222413695658   Change is   -0.005829022152668
 Root     14 :     5.783933962152332   Change is   -0.000646934767752
 Root     15 :     6.041896304376229   Change is   -0.001209579050066
 Root     16 :     6.098303124762658   Change is   -0.007645437911343
 Root     17 :     6.244079531250733   Change is   -0.007714302780831
 Root     18 :     6.314238648438047   Change is   -0.009498312199488
 Root     19 :     6.382846079681624   Change is   -0.005951328787958
 Root     20 :     6.425532782433762   Change is   -0.002024628129286
 Root     21 :     6.465953375636833   Change is   -0.004677775037233
 Root     22 :     6.557828587691923   Change is   -0.002551749759158
 Root     23 :     6.611851967585170   Change is   -0.003023483121499
 Root     24 :     6.619482894849864   Change is   -0.055783422644066
 Root     25 :     6.663267583034948   Change is   -0.121346240970810
 Root     26 :     6.689010947498893   Change is   -0.008257692469409
 Root     27 :     6.704584142678425   Change is   -0.149207711430345
 Root     28 :     6.854076430910936   Change is   -0.110298960868955
 Root     29 :     6.924708893574332   Change is   -0.022209905041797
 Root     30 :     6.956709783611504   Change is   -0.036875204744610
 Iteration     5 Dimension   360 NMult   300 NNew     60
 CISAX will form    60 AO SS matrices at one time.
 NMat=    60 NSing=    60 JSym2X= 0.
 Root      1 not converged, maximum delta is    0.000173310761567
 Root      2 not converged, maximum delta is    0.000244453211036
 Root      3 not converged, maximum delta is    0.000590649729714
 Root      4 not converged, maximum delta is    0.000652471189790
 Root      5 not converged, maximum delta is    0.001542889489869
 Root      6 not converged, maximum delta is    0.000759574188367
 Root      7 not converged, maximum delta is    0.000684850817697
 Root      8 not converged, maximum delta is    0.004473660023969
 Root      9 not converged, maximum delta is    0.001229617130010
 Root     10 not converged, maximum delta is    0.000838584961581
 Root     11 not converged, maximum delta is    0.001201637512963
 Root     12 not converged, maximum delta is    0.001058552817212
 Root     13 not converged, maximum delta is    0.002459952189026
 Root     14 not converged, maximum delta is    0.001391469981856
 Root     15 not converged, maximum delta is    0.000653303639583
 Root     16 not converged, maximum delta is    0.002004695448286
 Root     17 not converged, maximum delta is    0.004019429576074
 Root     18 not converged, maximum delta is    0.001241391056978
 Root     19 not converged, maximum delta is    0.002895594768901
 Root     20 not converged, maximum delta is    0.002172386934842
 Root     21 not converged, maximum delta is    0.003428195861055
 Root     22 not converged, maximum delta is    0.014261350732180
 New state     23 was old state     24
 Root     23 not converged, maximum delta is    0.044985582266850
 New state     24 was old state     23
 Root     24 not converged, maximum delta is    0.002194217070793
 Root     25 not converged, maximum delta is    0.042673472949689
 Root     26 not converged, maximum delta is    0.052765594272371
 Root     27 not converged, maximum delta is    0.035954015909145
 Root     28 not converged, maximum delta is    0.176456176235145
 Root     29 not converged, maximum delta is    0.225397869360119
 Root     30 not converged, maximum delta is    0.175200720518241
 Excitation Energies [eV] at current iteration:
 Root      1 :     3.007568044950586   Change is   -0.000040829424063
 Root      2 :     3.973850058258279   Change is   -0.000070688286983
 Root      3 :     4.766762758671528   Change is   -0.000150951587170
 Root      4 :     4.790160339707234   Change is   -0.000045895268682
 Root      5 :     5.106461086663912   Change is   -0.000210634605718
 Root      6 :     5.137161523459377   Change is   -0.000142490962812
 Root      7 :     5.217831540235310   Change is   -0.000203076134082
 Root      8 :     5.360551632750841   Change is   -0.000967691503873
 Root      9 :     5.453685955457893   Change is   -0.000106822502081
 Root     10 :     5.520732382473107   Change is   -0.000085590308278
 Root     11 :     5.613917220421472   Change is   -0.000101897142955
 Root     12 :     5.652213657527454   Change is   -0.000169101802065
 Root     13 :     5.769724343008821   Change is   -0.000498070686837
 Root     14 :     5.783889164421140   Change is   -0.000044797731192
 Root     15 :     6.041791642548921   Change is   -0.000104661827309
 Root     16 :     6.097379705692602   Change is   -0.000923419070055
 Root     17 :     6.242965878416236   Change is   -0.001113652834498
 Root     18 :     6.313518867181574   Change is   -0.000719781256472
 Root     19 :     6.381890286888173   Change is   -0.000955792793451
 Root     20 :     6.425311347601918   Change is   -0.000221434831844
 Root     21 :     6.465220657157507   Change is   -0.000732718479327
 Root     22 :     6.557322532402518   Change is   -0.000506055289406
 Root     23 :     6.595132014754611   Change is   -0.024350880095253
 Root     24 :     6.611387704524858   Change is   -0.000464263060312
 Root     25 :     6.652967675861517   Change is   -0.010299907173431
 Root     26 :     6.678597085360897   Change is   -0.010413862137996
 Root     27 :     6.699113024009969   Change is   -0.005471118668456
 Root     28 :     6.788409811535681   Change is   -0.065666619375256
 Root     29 :     6.886466076199020   Change is   -0.038242817375312
 Root     30 :     6.937598635580526   Change is   -0.019111148030978
 Iteration     6 Dimension   420 NMult   360 NNew     60
 CISAX will form    60 AO SS matrices at one time.
 NMat=    60 NSing=    60 JSym2X= 0.
 Root      1 not converged, maximum delta is    0.000019458064852
 Root      2 not converged, maximum delta is    0.000049922114564
 Root      3 not converged, maximum delta is    0.000099464998444
 Root      4 not converged, maximum delta is    0.000032045913473
 Root      5 not converged, maximum delta is    0.000349804753318
 Root      6 not converged, maximum delta is    0.000176812370228
 Root      7 not converged, maximum delta is    0.000102433959548
 Root      8 not converged, maximum delta is    0.000978038720198
 Root      9 not converged, maximum delta is    0.000213360273293
 Root     10 not converged, maximum delta is    0.000143252463126
 Root     11 not converged, maximum delta is    0.000167326481677
 Root     12 not converged, maximum delta is    0.000197263020036
 Root     13 not converged, maximum delta is    0.000272956035407
 Root     14 not converged, maximum delta is    0.000087406454694
 Root     15 not converged, maximum delta is    0.000095182879879
 Root     16 not converged, maximum delta is    0.000348924656189
 Root     17 not converged, maximum delta is    0.000917708172842
 Root     18 not converged, maximum delta is    0.000452323860169
 Root     19 not converged, maximum delta is    0.000990684784161
 Root     20 not converged, maximum delta is    0.000274174406394
 Root     21 not converged, maximum delta is    0.000523208591320
 Root     22 not converged, maximum delta is    0.002705792018699
 Root     23 not converged, maximum delta is    0.004581107776303
 Root     24 not converged, maximum delta is    0.000556086120100
 Root     25 not converged, maximum delta is    0.003467097683731
 Root     26 not converged, maximum delta is    0.007027333581165
 Root     27 not converged, maximum delta is    0.007502916241974
 Root     28 not converged, maximum delta is    0.011282933925112
 Root     29 not converged, maximum delta is    0.020725005161260
 Root     30 not converged, maximum delta is    0.182085840022629
 Excitation Energies [eV] at current iteration:
 Root      1 :     3.007566752669226   Change is   -0.000001292281359
 Root      2 :     3.973847227667997   Change is   -0.000002830590281
 Root      3 :     4.766754976369078   Change is   -0.000007782302451
 Root      4 :     4.790158367678943   Change is   -0.000001972028291
 Root      5 :     5.106446532118706   Change is   -0.000014554545205
 Root      6 :     5.137152022795252   Change is   -0.000009500664125
 Root      7 :     5.217821649454503   Change is   -0.000009890780806
 Root      8 :     5.360467850712618   Change is   -0.000083782038222
 Root      9 :     5.453677923300532   Change is   -0.000008032157361
 Root     10 :     5.520727244811918   Change is   -0.000005137661189
 Root     11 :     5.613910547742087   Change is   -0.000006672679385
 Root     12 :     5.652202860504223   Change is   -0.000010797023231
 Root     13 :     5.769692485946875   Change is   -0.000031857061946
 Root     14 :     5.783886583128039   Change is   -0.000002581293101
 Root     15 :     6.041785151181490   Change is   -0.000006491367431
 Root     16 :     6.097321685590270   Change is   -0.000058020102332
 Root     17 :     6.242871480985768   Change is   -0.000094397430468
 Root     18 :     6.313462000301229   Change is   -0.000056866880346
 Root     19 :     6.381767494204510   Change is   -0.000122792683662
 Root     20 :     6.425289359430348   Change is   -0.000021988171570
 Root     21 :     6.465138910302110   Change is   -0.000081746855397
 Root     22 :     6.557254461975988   Change is   -0.000068070426529
 Root     23 :     6.592435462968682   Change is   -0.002696551785929
 Root     24 :     6.611327835195572   Change is   -0.000059869329285
 Root     25 :     6.651856243435876   Change is   -0.001111432425641
 Root     26 :     6.677210056249298   Change is   -0.001387029111599
 Root     27 :     6.698450167772680   Change is   -0.000662856237290
 Root     28 :     6.779642666272776   Change is   -0.008767145262905
 Root     29 :     6.883812831462931   Change is   -0.002653244736089
 Root     30 :     6.915839730859936   Change is   -0.021758904720590
 Iteration     7 Dimension   480 NMult   420 NNew     60
 CISAX will form    60 AO SS matrices at one time.
 NMat=    60 NSing=    60 JSym2X= 0.
 Root      1 not converged, maximum delta is    0.000003696013910
 Root      2 not converged, maximum delta is    0.000005472455297
 Root      3 not converged, maximum delta is    0.000026586874652
 Root      4 not converged, maximum delta is    0.000008788049648
 Root      5 not converged, maximum delta is    0.000094461369494
 Root      6 not converged, maximum delta is    0.000047157808835
 Root      7 not converged, maximum delta is    0.000022299938570
 Root      8 not converged, maximum delta is    0.000222007478597
 Root      9 not converged, maximum delta is    0.000026756932187
 Root     10 not converged, maximum delta is    0.000021572816471
 Root     11 not converged, maximum delta is    0.000036501146251
 Root     12 not converged, maximum delta is    0.000052494416569
 Root     13 not converged, maximum delta is    0.000060292938348
 Root     14 not converged, maximum delta is    0.000016387284517
 Root     15 not converged, maximum delta is    0.000021063649076
 Root     16 not converged, maximum delta is    0.000128550117599
 Root     17 not converged, maximum delta is    0.000157624473356
 Root     18 not converged, maximum delta is    0.000201699462837
 Root     19 not converged, maximum delta is    0.000298493752392
 Root     20 not converged, maximum delta is    0.000122222631253
 Root     21 not converged, maximum delta is    0.000196211971139
 Root     22 not converged, maximum delta is    0.000272640741557
 Root     23 not converged, maximum delta is    0.001159810218370
 Root     24 not converged, maximum delta is    0.000146951885727
 Root     25 not converged, maximum delta is    0.000777540347974
 Root     26 not converged, maximum delta is    0.000945527201726
 Root     27 not converged, maximum delta is    0.000836157743477
 Root     28 not converged, maximum delta is    0.003333045870302
 Root     29 not converged, maximum delta is    0.003402546828927
 Root     30 not converged, maximum delta is    0.005364804485067
 Excitation Energies [eV] at current iteration:
 Root      1 :     3.007566714280251   Change is   -0.000000038388975
 Root      2 :     3.973847134882748   Change is   -0.000000092785250
 Root      3 :     4.766754571569018   Change is   -0.000000404800060
 Root      4 :     4.790158272972639   Change is   -0.000000094706305
 Root      5 :     5.106445296541059   Change is   -0.000001235577648
 Root      6 :     5.137151358687508   Change is   -0.000000664107744
 Root      7 :     5.217821119378507   Change is   -0.000000530075997
 Root      8 :     5.360461005112706   Change is   -0.000006845599912
 Root      9 :     5.453677407553952   Change is   -0.000000515746580
 Root     10 :     5.520726906716847   Change is   -0.000000338095071
 Root     11 :     5.613910080941564   Change is   -0.000000466800523
 Root     12 :     5.652202091441025   Change is   -0.000000769063197
 Root     13 :     5.769690573477372   Change is   -0.000001912469503
 Root     14 :     5.783886416806520   Change is   -0.000000166321519
 Root     15 :     6.041784758358792   Change is   -0.000000392822697
 Root     16 :     6.097317614421275   Change is   -0.000004071168995
 Root     17 :     6.242864688266873   Change is   -0.000006792718895
 Root     18 :     6.313455432351720   Change is   -0.000006567949508
 Root     19 :     6.381755584793767   Change is   -0.000011909410743
 Root     20 :     6.425287197459713   Change is   -0.000002161970636
 Root     21 :     6.465130665637661   Change is   -0.000008244664449
 Root     22 :     6.557247459774706   Change is   -0.000007002201283
 Root     23 :     6.592182530199433   Change is   -0.000252932769249
 Root     24 :     6.611321537722062   Change is   -0.000006297473511
 Root     25 :     6.651750703900637   Change is   -0.000105539535239
 Root     26 :     6.677060430690125   Change is   -0.000149625559173
 Root     27 :     6.698369183059251   Change is   -0.000080984713428
 Root     28 :     6.778648976163670   Change is   -0.000993690109105
 Root     29 :     6.883451975869299   Change is   -0.000360855593631
 Root     30 :     6.913573433699407   Change is   -0.002266297160529
 Davidson failed to converge within maximum sub-space dimensions.
  Restart with updated initial guess:
[...]
 Alpha virt. eigenvalues --    0.12995   0.13023   0.13368   0.14084   0.14334
 Alpha virt. eigenvalues --    0.14645   0.14785   0.14915   0.15118   0.15331
 Alpha virt. eigenvalues --    0.15632   0.15780   0.15818   0.16098   0.16241
 Alpha virt. eigenvalues --    0.16431   0.16483   0.16842   0.16904   0.17144
 Alpha virt. eigenvalues --    0.17212   0.17365   0.17460   0.17637   0.17782
 Alpha virt. eigenvalues --    0.17970   0.18044   0.18332   0.18409   0.18670
 Alpha virt. eigenvalues --    0.18846   0.19025   0.19118   0.19357   0.19603
 Alpha virt. eigenvalues --    0.19904   0.19962   0.20256   0.20322   0.20517
 Alpha virt. eigenvalues --    0.20751   0.21107   0.21359   0.21447   0.21730
 Alpha virt. eigenvalues --    0.21936   0.21988   0.22325   0.22351   0.22446
 Alpha virt. eigenvalues --    0.22778   0.22878   0.23161   0.23430   0.23467
 Alpha virt. eigenvalues --    0.23541   0.23927   0.24006   0.24160   0.24410
 Alpha virt. eigenvalues --    0.24702   0.24851   0.25017   0.25522   0.25608
 Alpha virt. eigenvalues --    0.25689   0.26064   0.26138   0.26278   0.26466
 Alpha virt. eigenvalues --    0.26643   0.26787   0.26827   0.27061   0.27344
 Alpha virt. eigenvalues --    0.27459   0.27788   0.27996   0.28222   0.28515
 Alpha virt. eigenvalues --    0.29114   0.29286   0.29343   0.29448   0.29632
 Alpha virt. eigenvalues --    0.30020   0.30183   0.30354   0.30546   0.30866
 Alpha virt. eigenvalues --    0.30967   0.31273   0.31541   0.32054   0.32178
 Alpha virt. eigenvalues --    0.32371   0.32620   0.33021   0.33142   0.33306
 Alpha virt. eigenvalues --    0.33620   0.33825   0.34088   0.34226   0.34521
 Alpha virt. eigenvalues --    0.34615   0.34852   0.35241   0.35534   0.35642
 Alpha virt. eigenvalues --    0.35826   0.35887   0.36073   0.36089   0.36476
 Alpha virt. eigenvalues --    0.36559   0.36874   0.37076   0.37339   0.37582
 Alpha virt. eigenvalues --    0.37656   0.37884   0.38053   0.38255   0.38617
 Alpha virt. eigenvalues --    0.38881   0.39101   0.39639   0.39701   0.39774
 Alpha virt. eigenvalues --    0.39915   0.40203   0.40778   0.40850   0.41148
 Alpha virt. eigenvalues --    0.41587   0.41692   0.42071   0.42522   0.42680
 Alpha virt. eigenvalues --    0.43158   0.43356   0.43622   0.44205   0.44396
 Alpha virt. eigenvalues --    0.44546   0.44756   0.45130   0.45201   0.45563
 Alpha virt. eigenvalues --    0.45809   0.46067   0.46642   0.47332   0.47566
 Alpha virt. eigenvalues --    0.48196   0.48313   0.48464   0.49146   0.49219
 Alpha virt. eigenvalues --    0.49750   0.50282   0.50867   0.51513   0.51822
 Alpha virt. eigenvalues --    0.52352   0.52892   0.53538   0.53580   0.54446
 Alpha virt. eigenvalues --    0.54962   0.56118   0.56640   0.56756   0.56965
 Alpha virt. eigenvalues --    0.57845   0.58500   0.58788   0.60095   0.60603
 Alpha virt. eigenvalues --    0.60887   0.61084   0.61585   0.61959   0.63098
 Alpha virt. eigenvalues --    0.63378   0.63822   0.64125   0.64417   0.64938
 Alpha virt. eigenvalues --    0.65349   0.65416   0.65892   0.66308   0.66718
 Alpha virt. eigenvalues --    0.67719   0.68378   0.68967   0.69308   0.69497
 Alpha virt. eigenvalues --    0.69774   0.69976   0.70257   0.70914   0.71160
 Alpha virt. eigenvalues --    0.71442   0.71976   0.72066   0.72865   0.73056
 Alpha virt. eigenvalues --    0.73237   0.73375   0.73445   0.73805   0.73868
 Alpha virt. eigenvalues --    0.74419   0.74751   0.75028   0.75202   0.75662
 Alpha virt. eigenvalues --    0.75925   0.76109   0.76448   0.76710   0.77052
 Alpha virt. eigenvalues --    0.77287   0.77835   0.77960   0.78444   0.78610
 Alpha virt. eigenvalues --    0.78733   0.79131   0.79406   0.79601   0.79717
 Alpha virt. eigenvalues --    0.80098   0.80266   0.80396   0.80525   0.81152
 Alpha virt. eigenvalues --    0.81415   0.81595   0.81955   0.82136   0.82800
 Alpha virt. eigenvalues --    0.83105   0.83252   0.83662   0.84027   0.84234
 Alpha virt. eigenvalues --    0.84327   0.84420   0.84995   0.85213   0.85505
 Alpha virt. eigenvalues --    0.85670   0.86021   0.86410   0.86906   0.87062
 Alpha virt. eigenvalues --    0.87539   0.87702   0.88204   0.88334   0.88864
 Alpha virt. eigenvalues --    0.89573   0.89953   0.91022   0.91438   0.91709
 Alpha virt. eigenvalues --    0.92708   0.93354   0.93908   0.94160   0.94807
 Alpha virt. eigenvalues --    0.95967   0.96592   0.96932   0.97586   0.98664
 Alpha virt. eigenvalues --    0.99005   0.99425   0.99907   1.00717   1.00860
 Alpha virt. eigenvalues --    1.01299   1.02078   1.02285   1.02562   1.02956
 Alpha virt. eigenvalues --    1.03149   1.03746   1.03983   1.05083   1.05362
 Alpha virt. eigenvalues --    1.06647   1.06868   1.07522   1.07998   1.09133
 Alpha virt. eigenvalues --    1.09220   1.09491   1.09709   1.09890   1.10611
 Alpha virt. eigenvalues --    1.11181   1.11280   1.11657   1.11916   1.12261
 Alpha virt. eigenvalues --    1.12652   1.12960   1.13531   1.13877   1.13902
 Alpha virt. eigenvalues --    1.14123   1.14441   1.15598   1.16005   1.17712
 Alpha virt. eigenvalues --    1.18063   1.19013   1.19757   1.20147   1.20539
 Alpha virt. eigenvalues --    1.21390   1.21872   1.22321   1.23538   1.23834
 Alpha virt. eigenvalues --    1.24041   1.25639   1.26550   1.27412   1.28158
 Alpha virt. eigenvalues --    1.28508   1.28746   1.28880   1.29972   1.30918
 Alpha virt. eigenvalues --    1.31734   1.32289   1.33404   1.35750   1.36323
 Alpha virt. eigenvalues --    1.36582   1.36980   1.37949   1.38258   1.38416
 Alpha virt. eigenvalues --    1.39783   1.40953   1.41944   1.43040   1.43153
 Alpha virt. eigenvalues --    1.44424   1.45934   1.46047   1.46060   1.46929
 Alpha virt. eigenvalues --    1.47284   1.47512   1.48973   1.49684   1.52502
 Alpha virt. eigenvalues --    1.52598   1.54238   1.54303   1.54790   1.57248
 Alpha virt. eigenvalues --    1.57319   1.58131   1.58621   1.58961   1.59006
 Alpha virt. eigenvalues --    1.59135   1.60132   1.60333   1.60824   1.61159
 Alpha virt. eigenvalues --    1.61613   1.61955   1.63352   1.63653   1.64131
 Alpha virt. eigenvalues --    1.64677   1.65711   1.65893   1.66104   1.66350
 Alpha virt. eigenvalues --    1.66911   1.67253   1.67368   1.67930   1.68015
 Alpha virt. eigenvalues --    1.68333   1.68587   1.68810   1.68973   1.69252
 Alpha virt. eigenvalues --    1.69727   1.69874   1.70516   1.70821   1.71238
 Alpha virt. eigenvalues --    1.71931   1.72369   1.72642   1.72802   1.73529
 Alpha virt. eigenvalues --    1.73776   1.73911   1.74226   1.75477   1.75943
 Alpha virt. eigenvalues --    1.76361   1.76514   1.77612   1.77932   1.78113
 Alpha virt. eigenvalues --    1.78416   1.78855   1.79317   1.79891   1.80612
 Alpha virt. eigenvalues --    1.80747   1.81850   1.81946   1.82209   1.82491
 Alpha virt. eigenvalues --    1.83509   1.85122   1.85862   1.86433   1.86641
 Alpha virt. eigenvalues --    1.87241   1.87599   1.87817   1.88447   1.88760
 Alpha virt. eigenvalues --    1.89026   1.89644   1.90496   1.91200   1.91817
 Alpha virt. eigenvalues --    1.92715   1.92975   1.93773   1.94767   1.94989
 Alpha virt. eigenvalues --    1.95726   1.96566   1.97030   1.97605   1.98191
 Alpha virt. eigenvalues --    1.98578   1.99002   1.99862   2.00210   2.00913
 Alpha virt. eigenvalues --    2.01259   2.01868   2.02705   2.03690   2.03824
 Alpha virt. eigenvalues --    2.04352   2.04915   2.05282   2.06415   2.06782
 Alpha virt. eigenvalues --    2.07001   2.07920   2.08836   2.08900   2.09062
 Alpha virt. eigenvalues --    2.10426   2.10884   2.10946   2.11527   2.12264
 Alpha virt. eigenvalues --    2.12743   2.13400   2.14800   2.15580   2.16444
 Alpha virt. eigenvalues --    2.16815   2.17235   2.17481   2.18898   2.19902
 Alpha virt. eigenvalues --    2.20285   2.21454   2.21872   2.22865   2.23820
 Alpha virt. eigenvalues --    2.24868   2.25910   2.26093   2.26734   2.27482
 Alpha virt. eigenvalues --    2.28024   2.28467   2.29123   2.30126   2.30309
 Alpha virt. eigenvalues --    2.31525   2.32093   2.33272   2.34193   2.34859
 Alpha virt. eigenvalues --    2.35544   2.35844   2.36779   2.37563   2.37930
 Alpha virt. eigenvalues --    2.38042   2.40005   2.40513   2.42193   2.43249
 Alpha virt. eigenvalues --    2.44326   2.45528   2.45862   2.46208   2.47034
 Alpha virt. eigenvalues --    2.48044   2.48896   2.50169   2.50384   2.51048
 Alpha virt. eigenvalues --    2.53802   2.54725   2.55681   2.56998   2.57559
 Alpha virt. eigenvalues --    2.57908   2.58277   2.59349   2.60112   2.60874
 Alpha virt. eigenvalues --    2.60925   2.61280   2.61762   2.62346   2.63260
 Alpha virt. eigenvalues --    2.64633   2.64818   2.64848   2.65856   2.66619
 Alpha virt. eigenvalues --    2.67171   2.67417   2.68165   2.68679   2.69138
 Alpha virt. eigenvalues --    2.69831   2.70416   2.71315   2.71400   2.71877
 Alpha virt. eigenvalues --    2.72148   2.72730   2.73360   2.74232   2.74742
 Alpha virt. eigenvalues --    2.74819   2.75711   2.76117   2.76562   2.77183
 Alpha virt. eigenvalues --    2.77724   2.78625   2.79615   2.79914   2.80005
 Alpha virt. eigenvalues --    2.80576   2.81176   2.81517   2.82156   2.82597
 Alpha virt. eigenvalues --    2.83199   2.85233   2.85799   2.85839   2.86477
 Alpha virt. eigenvalues --    2.86893   2.87815   2.88284   2.89165   2.89834
 Alpha virt. eigenvalues --    2.90881   2.91363   2.91699   2.92913   2.93269
 Alpha virt. eigenvalues --    2.93472   2.94081   2.94636   2.94826   2.95730
 Alpha virt. eigenvalues --    2.96498   2.97256   2.97584   2.99099   2.99680
 Alpha virt. eigenvalues --    2.99978   3.00626   3.01085   3.01828   3.02671
 Alpha virt. eigenvalues --    3.03107   3.04196   3.04454   3.05307   3.05559
 Alpha virt. eigenvalues --    3.06592   3.07211   3.07423   3.07893   3.08609
 Alpha virt. eigenvalues --    3.08882   3.09618   3.10296   3.10640   3.12750
 Alpha virt. eigenvalues --    3.15479   3.16252   3.18235   3.19535   3.19816
 Alpha virt. eigenvalues --    3.20183   3.22408   3.23368   3.24063   3.25294
 Alpha virt. eigenvalues --    3.26830   3.27604   3.28818   3.29415   3.30100
 Alpha virt. eigenvalues --    3.31314   3.31665   3.33731   3.34767   3.35297
 Alpha virt. eigenvalues --    3.36451   3.38629   3.39746   3.41469   3.42410
 Alpha virt. eigenvalues --    3.42811   3.43510   3.43836   3.45972   3.46462
 Alpha virt. eigenvalues --    3.48976   3.49271   3.50282   3.52756   3.54637
 Alpha virt. eigenvalues --    3.55653   3.56220   3.60182   3.61555   3.67672
 Alpha virt. eigenvalues --    3.67982   3.69852   3.71029   3.73976   3.76357
 Alpha virt. eigenvalues --    3.78975   3.79521   3.81018   3.83355   3.83461
 Alpha virt. eigenvalues --    3.84476   3.87947   3.89113   3.90256   3.91509
 Alpha virt. eigenvalues --    3.92003   3.92770   3.93672   3.93771   3.94197
 Alpha virt. eigenvalues --    3.94910   3.95067   3.95158   3.96068   3.96726
 Alpha virt. eigenvalues --    3.97611   3.98353   4.06014   4.08306   4.09576
 Alpha virt. eigenvalues --    4.12378   4.15507   4.16625   4.19742   4.22539
 Alpha virt. eigenvalues --    4.28009   4.31231   4.32033   4.34869   4.35349
 Alpha virt. eigenvalues --    4.37007   4.38542   4.39327   4.39829   4.45811
 Alpha virt. eigenvalues --    4.46110   4.49195   4.58594   4.77511   4.94772
 Alpha virt. eigenvalues --    4.96029   4.96785   4.98014   4.99267   5.13074
 Alpha virt. eigenvalues --    5.17127   5.21580   5.23673   5.24077   5.44299
 Alpha virt. eigenvalues --    5.50892   5.53467   5.82293   6.07255   6.11512
 Alpha virt. eigenvalues --   23.70490  23.83106  23.83751  23.98143  23.98530
 Alpha virt. eigenvalues --   23.98924  23.99941  24.00361  24.00600  24.01971
 Alpha virt. eigenvalues --   24.06738  24.08256  24.08403  24.09554  24.10016
 Alpha virt. eigenvalues --   24.11011  24.11873  24.12115  24.12185  24.14630
 Alpha virt. eigenvalues --   24.14935  24.19717  24.24589  24.25120  24.25746
 Alpha virt. eigenvalues --   24.29506  24.30331  24.30846  35.78030  35.79180
 Alpha virt. eigenvalues --   50.03833  50.10596  50.16369
          Condensed to atoms (all electrons):
 Mulliken charges:
               1
     1  C   -0.032086
     2  C   -0.359487
     3  C   -0.105383
     4  C   -0.492510
     5  C   -0.096556
     6  C    0.429795
     7  O   -0.047998
     8  C    0.459881
     9  C    0.923259
    10  C    0.228689
    11  C   -0.100785
    12  C   -0.517602
    13  C   -0.385960
    14  C   -0.397575
    15  C   -0.060894
    16  C    0.310866
    17  C   -0.207273
    18  C   -0.088094
    19  C   -0.068303
    20  C   -0.493173
    21  C   -0.602593
    22  N   -0.089408
    23  C   -0.296718
    24  C   -0.429575
    25  N   -0.028135
    26  C   -0.051325
    27  C   -0.701457
    28  C   -0.676017
    29  C   -0.578563
    30  O   -0.182023
    31  O   -0.034911
    32  C    0.005676
    33  C   -0.610714
    34  H    0.264739
    35  H    0.152422
    36  H    0.276937
    37  H    0.219653
    38  H    0.246116
    39  H    0.235238
    40  H    0.257670
    41  H    0.153415
    42  H    0.196596
    43  H    0.197400
    44  H    0.191388
    45  H    0.187381
    46  H    0.212386
    47  H    0.159440
    48  H    0.144616
    49  H    0.169179
    50  H    0.388202
    51  H    0.193349
    52  H    0.190477
    53  H    0.180557
    54  H    0.168179
    55  H    0.169346
    56  H    0.192396
    57  H    0.191642
    58  H    0.194903
    59  H    0.195446
    60  H    0.191501
    61  H    0.172579
    62  H    0.163822
    63  H    0.166081
    64  H    0.353895
 Sum of Mulliken charges =   1.00000
 Mulliken charges with hydrogens summed into heavy atoms:
               1
     1  C   -0.032086
     2  C   -0.359487
     3  C    0.159356
     4  C   -0.340088
     5  C   -0.096556
     6  C    0.429795
     7  O   -0.047998
     8  C    0.459881
     9  C    0.923259
    10  C    0.228689
    11  C    0.176152
    12  C   -0.297949
    13  C   -0.139843
    14  C   -0.162336
    15  C   -0.060894
    16  C    0.310866
    17  C    0.050397
    18  C   -0.088094
    19  C   -0.068303
    20  C   -0.339758
    21  C   -0.017208
    22  N    0.264487
    23  C    0.103049
    24  C    0.043660
    25  N    0.360066
    26  C    0.332501
    27  C   -0.183375
    28  C   -0.097076
    29  C   -0.578563
    30  O   -0.182023
    31  O   -0.034911
    32  C    0.392623
    33  C   -0.108233
 Electronic spatial extent (au):  <R**2>=          84015.1462
 Charge=              1.0000 electrons
 Dipole moment (field-independent basis, Debye):
    X=              2.5424    Y=            -42.3182    Z=             -2.2639  Tot=             42.4549
 Quadrupole moment (field-independent basis, Debye-Ang):
   XX=           -135.9507   YY=            298.2563   ZZ=           -176.5909
   XY=            -23.1846   XZ=              7.8805   YZ=             18.8474
 Traceless Quadrupole moment (field-independent basis, Debye-Ang):
   XX=           -131.1889   YY=            303.0180   ZZ=           -171.8291
   XY=            -23.1846   XZ=              7.8805   YZ=             18.8474
 Octapole moment (field-independent basis, Debye-Ang**2):
  XXX=           -675.7749  YYY=          -1364.4488  ZZZ=             44.9565  XYY=           -164.8091
  XXY=           1205.4406  XXZ=            -16.7419  XZZ=           -206.1351  YZZ=           1569.2587
  YYZ=           -238.3010  XYZ=            -55.4511
 Hexadecapole moment (field-independent basis, Debye-Ang**3):
 XXXX=          -9352.4727 YYYY=         -11694.5816 ZZZZ=          -2961.7407 XXXY=           5764.2823
 XXXZ=          -1061.3929 YYYX=           7766.7345 YYYZ=           3212.2614 ZZZX=           -720.1403
 ZZZY=           -449.7038 XXYY=         -14003.5559 XXZZ=          -2021.3418 YYZZ=         -16379.1114
 XXYZ=            132.2760 YYXZ=            115.3778 ZZXY=           1793.4611
 N-N= 3.331927107183D+03 E-N=-9.944249315531D+03  KE= 1.413637910906D+03
 No NMR shielding tensors so no spin-rotation constants.
 Leave Link  601 at Sat May  2 16:09:48 2020, MaxMem=  6710886400 cpu:        11.7
 (Enter /opt/sys/apps/gaussian09/D.01/g09/l9999.exe)

 Test job not archived.
 1\1\GINC-S93P19\SP\RCAM-B3LYP TD-FC\6-311++G(d,p)\C28H31N2O3(1+)\SALVA
 TORE\02-May-2020\0\\#p CAM-B3LYP/6-311++G** nosym density=current geom
 =allcheck EmpiricalDispersion=GD3 SCRF=(CPCM, solvent=ethanol) IOP(10/
 74=10) TD=(NSTATES=30,ROOT=1,NONEQ) iop(3/119=0810000000) iop(3/120=08
 10000000)\\R6G\\1,1\C,0,1.4859025082,-12.4648864236,-0.3645416185\C,0,
 0.0443221919,-12.4559466293,-0.4846735335\C,0,-0.637277883,-11.2282727
 121,-0.6054327154\C,0,2.1547475,-11.2719239181,-0.3781367248\C,0,1.492
 5673115,-10.0172222915,-0.5029600818\C,0,0.0777226729,-10.0493229455,-
 0.6094309647\O,0,-0.6376449452,-8.8984578898,-0.7168078209\C,0,2.14809
 6349,-8.7745311292,-0.4984664949\C,0,3.6376968485,-8.710151529,-0.4506
 291989\C,0,4.3682919265,-8.5441764327,0.7415062914\C,0,5.7671630993,-8
 .4800438017,0.6865278175\C,0,6.4370277528,-8.5795464797,-0.5274149968\
 C,0,5.712422808,-8.7442411607,-1.7061987519\C,0,4.3217710531,-8.808810
 0559,-1.6649730618\C,0,1.3945057642,-7.5962847957,-0.6302917874\C,0,-0
 .0178843053,-7.6883014149,-0.7300115729\C,0,-0.8260760999,-6.577148514
 5,-0.8364057875\C,0,-0.248701317,-5.2916263688,-0.8522117669\C,0,1.188
 3740461,-5.1563761596,-0.752057428\C,0,1.9522000768,-6.2863463045,-0.6
 474428287\C,0,1.8180554126,-3.788850255,-0.7666899434\N,0,-1.007411996
 1,-4.180882282,-0.9746607845\C,0,-2.4692210828,-4.1429716316,-1.004701
 3672\C,0,-3.1037062421,-4.2952205634,0.3807438984\N,0,-0.6292851571,-1
 3.6244398292,-0.4769551617\C,0,-2.0804470759,-13.760023406,-0.59346894
 2\C,0,-2.4852974927,-15.2275402227,-0.5321109087\C,0,2.2209139126,-13.
 7713829635,-0.2264947666\C,0,3.6523496254,-8.4476424376,2.0489795707\O
 ,0,2.4497937877,-8.5682343925,2.1793310693\O,0,4.4817906501,-8.2136155
 034,3.0732879348\C,0,3.8837518671,-8.1114701695,4.3974990871\C,0,5.009
 951503,-7.8816389712,5.3814322155\H,0,-1.713107394,-11.1824737341,-0.6
 922552831\H,0,3.2340842356,-11.2711790853,-0.2883424234\H,0,6.32406076
 61,-8.353970036,1.6047760302\H,0,7.5188948894,-8.5300073578,-0.5528042
 136\H,0,6.2251210142,-8.8228713912,-2.6576042496\H,0,3.7569306249,-8.9
 341662356,-2.5811299304\H,0,-1.8945163754,-6.721961515,-0.8997181524\H
 ,0,3.028374425,-6.189329449,-0.5729162408\H,0,2.9018314284,-3.86337128
 76,-0.6784781715\H,0,1.5956751138,-3.2539451423,-1.696539079\H,0,1.459
 0787811,-3.1711441668,0.0640244421\H,0,-2.8306101124,-4.9167940998,-1.
 6866510994\H,0,-2.7482511963,-3.1844223508,-1.44409748\H,0,-4.19290467
 42,-4.26312242,0.2970595109\H,0,-2.8234453106,-5.2444083558,0.84258503
 89\H,0,-2.7832538111,-3.4852434566,1.040241101\H,0,-0.101714306,-14.47
 93270841,-0.3910439386\H,0,-2.410257639,-13.314886954,-1.5386869269\H,
 0,-2.5613523178,-13.2013761666,0.2168481423\H,0,-3.5694372816,-15.3155
 349908,-0.620676993\H,0,-2.0307823893,-15.7952041335,-1.3484474032\H,0
 ,-2.1840969742,-15.6786765327,0.4170438159\H,0,1.9024606312,-14.318079
 6265,0.6677736347\H,0,2.0496392049,-14.4224991618,-1.0906261686\H,0,3.
 2947476006,-13.6027157181,-0.1469015046\H,0,3.3396485917,-9.0359209921
 ,4.6011503639\H,0,3.168832055,-7.2861713497,4.3878153705\H,0,4.5985394
 942,-7.8000049726,6.3904002829\H,0,5.7177598652,-8.7132553918,5.363968
 2531\H,0,5.5461807268,-6.9581281013,5.1522229006\H,0,-0.5409747364,-3.
 2890191561,-0.9249085044\\Version=ES64L-G09RevD.01\HF=-1419.3231243\RM
 SD=7.385e-09\Dipole=-1.8189295,-0.0516493,-1.1059022\Quadrupole=-97.53
 57565,225.286504,-127.7507475,-17.2372089,5.8589259,14.0125504\PG=C01 
 [X(C28H31N2O3)]\\@


 ANYONE WHO IS NOT SHOCKED BY QUANTUM THEORY HAS
 NOT UNDERSTOOD IT. -- NIELS BOHR(1885-1962)
 Job cpu time:       5 days  3 hours 10 minutes 38.8 seconds.
 File lengths (MBytes):  RWF=   5718 Int=      0 D2E=      0 Chk=    956 Scr=      1
 Normal termination of Gaussian 09 at Sat May  2 16:09:50 2020.
