 Entering Gaussian System, Link 0=g09
 Initial command:
 /opt/sys/apps/gaussian09/D.01/g09/l1.exe "/tmp/Gau-8020.inp" -scrdir="/tmp/"
 Entering Link 1 = /opt/sys/apps/gaussian09/D.01/g09/l1.exe PID=      8021.
  
 Copyright (c) 1988,1990,1992,1993,1995,1998,2003,2009,2013,
            Gaussian, Inc.  All Rights Reserved.
  
 This is part of the Gaussian(R) 09 program.  It is based on
 the Gaussian(R) 03 system (copyright 2003, Gaussian, Inc.),
 the Gaussian(R) 98 system (copyright 1998, Gaussian, Inc.),
 the Gaussian(R) 94 system (copyright 1995, Gaussian, Inc.),
 the Gaussian 92(TM) system (copyright 1992, Gaussian, Inc.),
 the Gaussian 90(TM) system (copyright 1990, Gaussian, Inc.),
 the Gaussian 88(TM) system (copyright 1988, Gaussian, Inc.),
 the Gaussian 86(TM) system (copyright 1986, Carnegie Mellon
 University), and the Gaussian 82(TM) system (copyright 1983,
 Carnegie Mellon University). Gaussian is a federally registered
 trademark of Gaussian, Inc.
  
 This software contains proprietary and confidential information,
 including trade secrets, belonging to Gaussian, Inc.
  
 This software is provided under written license and may be
 used, copied, transmitted, or stored only in accord with that
 written license.
  
 The following legend is applicable only to US Government
 contracts under FAR:
  
                    RESTRICTED RIGHTS LEGEND
  
 Use, reproduction and disclosure by the US Government is
 subject to restrictions as set forth in subparagraphs (a)
 and (c) of the Commercial Computer Software - Restricted
 Rights clause in FAR 52.227-19.
  
 Gaussian, Inc.
 340 Quinnipiac St., Bldg. 40, Wallingford CT 06492
  
  
 ---------------------------------------------------------------
 Warning -- This program may not be used in any manner that
 competes with the business of Gaussian, Inc. or will provide
 assistance to any competitor of Gaussian, Inc.  The licensee
 of this program is prohibited from giving any competitor of
 Gaussian, Inc. access to this program.  By using this program,
 the user acknowledges that Gaussian, Inc. is engaged in the
 business of creating and licensing software in the field of
 computational chemistry and represents and warrants to the
 licensee that it is not a competitor of Gaussian, Inc. and that
 it will not use this program in any manner prohibited above.
 ---------------------------------------------------------------
  

 Cite this work as:
 Gaussian 09, Revision D.01,
 M. J. Frisch, G. W. Trucks, H. B. Schlegel, G. E. Scuseria, 
 M. A. Robb, J. R. Cheeseman, G. Scalmani, V. Barone, B. Mennucci, 
 G. A. Petersson, H. Nakatsuji, M. Caricato, X. Li, H. P. Hratchian, 
 A. F. Izmaylov, J. Bloino, G. Zheng, J. L. Sonnenberg, M. Hada, 
 M. Ehara, K. Toyota, R. Fukuda, J. Hasegawa, M. Ishida, T. Nakajima, 
 Y. Honda, O. Kitao, H. Nakai, T. Vreven, J. A. Montgomery, Jr., 
 J. E. Peralta, F. Ogliaro, M. Bearpark, J. J. Heyd, E. Brothers, 
 K. N. Kudin, V. N. Staroverov, T. Keith, R. Kobayashi, J. Normand, 
 K. Raghavachari, A. Rendell, J. C. Burant, S. S. Iyengar, J. Tomasi, 
 M. Cossi, N. Rega, J. M. Millam, M. Klene, J. E. Knox, J. B. Cross, 
 V. Bakken, C. Adamo, J. Jaramillo, R. Gomperts, R. E. Stratmann, 
 O. Yazyev, A. J. Austin, R. Cammi, C. Pomelli, J. W. Ochterski, 
 R. L. Martin, K. Morokuma, V. G. Zakrzewski, G. A. Voth, 
 P. Salvador, J. J. Dannenberg, S. Dapprich, A. D. Daniels, 
 O. Farkas, J. B. Foresman, J. V. Ortiz, J. Cioslowski, 
 and D. J. Fox, Gaussian, Inc., Wallingford CT, 2013.
 
 ******************************************
 Gaussian 09:  ES64L-G09RevD.01 24-Apr-2013
                 1-May-2020 
 ******************************************
 %NProcShared=24
 Will use up to   24 processors via shared memory.
 %Chk=checkpoint.chk
 %Mem=50GB
 ----------------------------------------------------------------------
 #p CAM-B3LYP/6-311++G** geom=allcheck nosym TD=(NSTATES=30,ROOT=1) den
 sity=current iop(3/119=0810000000) iop(3/120=0810000000)
 ----------------------------------------------------------------------
 1/29=7,30=1,38=1/1;
 2/12=2,15=1,40=1/2;
 3/5=4,6=6,7=1111,11=9,14=-4,16=1,25=1,30=1,71=1,74=-40,119=810000000,120=810000000/1,2,8,3;
 4//1;
 5/5=2,38=5/2;
 8/6=1,10=2,107=1,108=30/1;
 9/8=1,15=1,41=30,42=1,70=2/14;
 10/5=4,13=10,31=1/2;
 6/7=2,8=2,9=2,10=2,22=-1/1;
 99/5=1,9=1/99;
 Leave Link    1 at Fri May  1 19:53:10 2020, MaxMem=  6710886400 cpu:         2.3
 (Enter /opt/sys/apps/gaussian09/D.01/g09/l101.exe)
 Structure from the checkpoint file:  "checkpoint.chk"
 ---
 R6G
 ---
 Charge =  1 Multiplicity = 1
 Redundant internal coordinates found in file.
 C,0,1.504605154,-12.4300179555,-0.3451912596
 C,0,0.0626443142,-12.4261806737,-0.4396878625
 C,0,-0.6238021668,-11.2037516896,-0.5538086686
 C,0,2.1680839317,-11.233623091,-0.3658886341
 C,0,1.5016911997,-9.9795145573,-0.478627929
 C,0,0.0864503021,-10.0202393652,-0.5699036454
 O,0,-0.6364084647,-8.8760929841,-0.6774113187
 C,0,2.1527845427,-8.7304537922,-0.4798808001
 C,0,3.6462565459,-8.6551390388,-0.4414768869
 C,0,4.3882957525,-8.5454919871,0.7520662759
 C,0,5.7860541752,-8.478051627,0.6897370648
 C,0,6.4483646772,-8.5177855074,-0.5318550563
 C,0,5.7159056571,-8.6257054998,-1.7111524202
 C,0,4.3252691196,-8.6938649623,-1.6634543883
 C,0,1.3855647163,-7.5588632255,-0.6270853174
 C,0,-0.0263965216,-7.6637324545,-0.7164109084
 C,0,-0.8463980681,-6.5609768131,-0.8407243543
 C,0,-0.2828702672,-5.272914093,-0.8881424583
 C,0,1.15205673,-5.1216215921,-0.7963841883
 C,0,1.9271486685,-6.2421960401,-0.6709272697
 C,0,1.7704078344,-3.7488083771,-0.844379849
 N,0,-1.0499824926,-4.1671860236,-1.0340667103
 C,0,-2.5108621778,-4.1286625325,-1.1135698556
 C,0,-3.2065624696,-4.1702333306,0.2498089343
 N,0,-0.6049915936,-13.601709206,-0.4178222013
 C,0,-2.0569196081,-13.7559931705,-0.5019231361
 C,0,-2.4447718789,-15.2279673939,-0.4289759764
 C,0,2.2484066466,-13.7342198366,-0.2260293797
 C,0,3.6780877676,-8.5016289328,2.0690007769
 O,0,2.4721641734,-8.558863992,2.1857536117
 O,0,4.5200885528,-8.3924409262,3.1035866628
 C,0,3.9260380497,-8.3425267811,4.4338816457
 C,0,5.0521189012,-8.1880884811,5.4327238274
 H,0,-1.7010947655,-11.1640431094,-0.6263100799
 H,0,3.2487222643,-11.2313687431,-0.2941946534
 H,0,6.3446997557,-8.393829468,1.6119059685
 H,0,7.530036077,-8.4648170321,-0.5627117405
 H,0,6.2220391175,-8.6574475072,-2.6689976404
 H,0,3.7579872308,-8.7779172265,-2.583431025
 H,0,-1.9141841529,-6.7165038348,-0.8927235438
 H,0,3.0023554975,-6.1309659288,-0.6035364136
 H,0,2.8552055052,-3.8121704576,-0.7604322173
 H,0,1.5453748872,-3.2341966917,-1.7855261767
 H,0,1.4170653999,-3.1135302817,-0.0239850881
 H,0,-2.848625317,-4.9504542905,-1.7500125264
 H,0,-2.7712581065,-3.2078126936,-1.6393695241
 H,0,-4.2904398823,-4.1319487936,0.114990634
 H,0,-2.9642341832,-5.0829368782,0.7985589526
 H,0,-2.9119064178,-3.3165748371,0.8646139894
 H,0,-0.0648663825,-14.4479930294,-0.3309838301
 H,0,-2.4137020714,-13.3180672884,-1.441103718
 H,0,-2.5277409169,-13.2018775702,0.3179763133
 H,0,-3.5291751773,-15.3306159413,-0.4929309581
 H,0,-2.0075767828,-15.795653373,-1.2548225513
 H,0,-2.1229260306,-15.6767044021,0.5146242496
 H,0,1.9586321647,-14.2863076134,0.6753024461
 H,0,2.0672642403,-14.3855499893,-1.0886045113
 H,0,3.3230578252,-13.5615189296,-0.169584654
 H,0,3.3585960244,-9.2625820057,4.5873266656
 H,0,3.2268720269,-7.504697184,4.4635131392
 H,0,4.6373927587,-8.1490502126,6.4430777468
 H,0,5.7443250607,-9.0311147664,5.3812958216
 H,0,5.6106002911,-7.2661119704,5.2580672783
 H,0,-0.577397644,-3.2778320168,-1.0235506782
 Recover connectivity data from disk.
 NAtoms=     64 NQM=       64 NQMF=       0 NMMI=      0 NMMIF=      0
                NMic=       0 NMicF=      0.
                    Isotopes and Nuclear Properties:
 (Nuclear quadrupole moments (NQMom) in fm**2, nuclear magnetic moments (NMagM)
  in nuclear magnetons)

  Atom         1           2           3           4           5           6           7           8           9          10
 IAtWgt=          12          12          12          12          12          12          16          12          12          12
 AtmWgt=  12.0000000  12.0000000  12.0000000  12.0000000  12.0000000  12.0000000  15.9949146  12.0000000  12.0000000  12.0000000
 NucSpn=           0           0           0           0           0           0           0           0           0           0
 AtZEff=  -3.6000000  -3.6000000  -3.6000000  -3.6000000  -3.6000000  -3.6000000  -5.6000000  -3.6000000  -3.6000000  -3.6000000
 NQMom=    0.0000000   0.0000000   0.0000000   0.0000000   0.0000000   0.0000000   0.0000000   0.0000000   0.0000000   0.0000000
 NMagM=    0.0000000   0.0000000   0.0000000   0.0000000   0.0000000   0.0000000   0.0000000   0.0000000   0.0000000   0.0000000
 AtZNuc=   6.0000000   6.0000000   6.0000000   6.0000000   6.0000000   6.0000000   8.0000000   6.0000000   6.0000000   6.0000000

  Atom        11          12          13          14          15          16          17          18          19          20
 IAtWgt=          12          12          12          12          12          12          12          12          12          12
 AtmWgt=  12.0000000  12.0000000  12.0000000  12.0000000  12.0000000  12.0000000  12.0000000  12.0000000  12.0000000  12.0000000
 NucSpn=           0           0           0           0           0           0           0           0           0           0
 AtZEff=  -3.6000000  -3.6000000  -3.6000000  -3.6000000  -3.6000000  -3.6000000  -3.6000000  -3.6000000  -3.6000000  -3.6000000
 NQMom=    0.0000000   0.0000000   0.0000000   0.0000000   0.0000000   0.0000000   0.0000000   0.0000000   0.0000000   0.0000000
 NMagM=    0.0000000   0.0000000   0.0000000   0.0000000   0.0000000   0.0000000   0.0000000   0.0000000   0.0000000   0.0000000
 AtZNuc=   6.0000000   6.0000000   6.0000000   6.0000000   6.0000000   6.0000000   6.0000000   6.0000000   6.0000000   6.0000000

  Atom        21          22          23          24          25          26          27          28          29          30
 IAtWgt=          12          14          12          12          14          12          12          12          12          16
 AtmWgt=  12.0000000  14.0030740  12.0000000  12.0000000  14.0030740  12.0000000  12.0000000  12.0000000  12.0000000  15.9949146
 NucSpn=           0           2           0           0           2           0           0           0           0           0
 AtZEff=  -3.6000000  -4.5500000  -3.6000000  -3.6000000  -4.5500000  -3.6000000  -3.6000000  -3.6000000  -3.6000000  -5.6000000
 NQMom=    0.0000000   2.0440000   0.0000000   0.0000000   2.0440000   0.0000000   0.0000000   0.0000000   0.0000000   0.0000000
 NMagM=    0.0000000   0.4037610   0.0000000   0.0000000   0.4037610   0.0000000   0.0000000   0.0000000   0.0000000   0.0000000
 AtZNuc=   6.0000000   7.0000000   6.0000000   6.0000000   7.0000000   6.0000000   6.0000000   6.0000000   6.0000000   8.0000000

  Atom        31          32          33          34          35          36          37          38          39          40
 IAtWgt=          16          12          12           1           1           1           1           1           1           1
 AtmWgt=  15.9949146  12.0000000  12.0000000   1.0078250   1.0078250   1.0078250   1.0078250   1.0078250   1.0078250   1.0078250
 NucSpn=           0           0           0           1           1           1           1           1           1           1
 AtZEff=  -5.6000000  -3.6000000  -3.6000000  -1.0000000  -1.0000000  -1.0000000  -1.0000000  -1.0000000  -1.0000000  -1.0000000
 NQMom=    0.0000000   0.0000000   0.0000000   0.0000000   0.0000000   0.0000000   0.0000000   0.0000000   0.0000000   0.0000000
 NMagM=    0.0000000   0.0000000   0.0000000   2.7928460   2.7928460   2.7928460   2.7928460   2.7928460   2.7928460   2.7928460
 AtZNuc=   8.0000000   6.0000000   6.0000000   1.0000000   1.0000000   1.0000000   1.0000000   1.0000000   1.0000000   1.0000000

  Atom        41          42          43          44          45          46          47          48          49          50
 IAtWgt=           1           1           1           1           1           1           1           1           1           1
 AtmWgt=   1.0078250   1.0078250   1.0078250   1.0078250   1.0078250   1.0078250   1.0078250   1.0078250   1.0078250   1.0078250
 NucSpn=           1           1           1           1           1           1           1           1           1           1
 AtZEff=  -1.0000000  -1.0000000  -1.0000000  -1.0000000  -1.0000000  -1.0000000  -1.0000000  -1.0000000  -1.0000000  -1.0000000
 NQMom=    0.0000000   0.0000000   0.0000000   0.0000000   0.0000000   0.0000000   0.0000000   0.0000000   0.0000000   0.0000000
 NMagM=    2.7928460   2.7928460   2.7928460   2.7928460   2.7928460   2.7928460   2.7928460   2.7928460   2.7928460   2.7928460
 AtZNuc=   1.0000000   1.0000000   1.0000000   1.0000000   1.0000000   1.0000000   1.0000000   1.0000000   1.0000000   1.0000000

  Atom        51          52          53          54          55          56          57          58          59          60
 IAtWgt=           1           1           1           1           1           1           1           1           1           1
 AtmWgt=   1.0078250   1.0078250   1.0078250   1.0078250   1.0078250   1.0078250   1.0078250   1.0078250   1.0078250   1.0078250
 NucSpn=           1           1           1           1           1           1           1           1           1           1
 AtZEff=  -1.0000000  -1.0000000  -1.0000000  -1.0000000  -1.0000000  -1.0000000  -1.0000000  -1.0000000  -1.0000000  -1.0000000
 NQMom=    0.0000000   0.0000000   0.0000000   0.0000000   0.0000000   0.0000000   0.0000000   0.0000000   0.0000000   0.0000000
 NMagM=    2.7928460   2.7928460   2.7928460   2.7928460   2.7928460   2.7928460   2.7928460   2.7928460   2.7928460   2.7928460
 AtZNuc=   1.0000000   1.0000000   1.0000000   1.0000000   1.0000000   1.0000000   1.0000000   1.0000000   1.0000000   1.0000000

  Atom        61          62          63          64
 IAtWgt=           1           1           1           1
 AtmWgt=   1.0078250   1.0078250   1.0078250   1.0078250
 NucSpn=           1           1           1           1
 AtZEff=  -1.0000000  -1.0000000  -1.0000000  -1.0000000
 NQMom=    0.0000000   0.0000000   0.0000000   0.0000000
 NMagM=    2.7928460   2.7928460   2.7928460   2.7928460
 AtZNuc=   1.0000000   1.0000000   1.0000000   1.0000000
 Leave Link  101 at Fri May  1 19:53:10 2020, MaxMem=  6710886400 cpu:        12.0
 (Enter /opt/sys/apps/gaussian09/D.01/g09/l202.exe)
 Symmetry turned off by external request.
 Stoichiometry    C28H31N2O3(1+)
 Framework group  C1[X(C28H31N2O3)]
 Deg. of freedom   186
 Full point group                 C1      NOp   1
                          Input orientation:                          
 ---------------------------------------------------------------------
 Center     Atomic      Atomic             Coordinates (Angstroms)
 Number     Number       Type             X           Y           Z
 ---------------------------------------------------------------------
      1          6           0        1.504605  -12.430018   -0.345191
      2          6           0        0.062644  -12.426181   -0.439688
      3          6           0       -0.623802  -11.203752   -0.553809
      4          6           0        2.168084  -11.233623   -0.365889
      5          6           0        1.501691   -9.979515   -0.478628
      6          6           0        0.086450  -10.020239   -0.569904
      7          8           0       -0.636408   -8.876093   -0.677411
      8          6           0        2.152785   -8.730454   -0.479881
      9          6           0        3.646257   -8.655139   -0.441477
     10          6           0        4.388296   -8.545492    0.752066
     11          6           0        5.786054   -8.478052    0.689737
     12          6           0        6.448365   -8.517786   -0.531855
     13          6           0        5.715906   -8.625705   -1.711152
     14          6           0        4.325269   -8.693865   -1.663454
     15          6           0        1.385565   -7.558863   -0.627085
     16          6           0       -0.026397   -7.663732   -0.716411
     17          6           0       -0.846398   -6.560977   -0.840724
     18          6           0       -0.282870   -5.272914   -0.888142
     19          6           0        1.152057   -5.121622   -0.796384
     20          6           0        1.927149   -6.242196   -0.670927
     21          6           0        1.770408   -3.748808   -0.844380
     22          7           0       -1.049982   -4.167186   -1.034067
     23          6           0       -2.510862   -4.128663   -1.113570
     24          6           0       -3.206562   -4.170233    0.249809
     25          7           0       -0.604992  -13.601709   -0.417822
     26          6           0       -2.056920  -13.755993   -0.501923
     27          6           0       -2.444772  -15.227967   -0.428976
     28          6           0        2.248407  -13.734220   -0.226029
     29          6           0        3.678088   -8.501629    2.069001
     30          8           0        2.472164   -8.558864    2.185754
     31          8           0        4.520089   -8.392441    3.103587
     32          6           0        3.926038   -8.342527    4.433882
     33          6           0        5.052119   -8.188088    5.432724
     34          1           0       -1.701095  -11.164043   -0.626310
     35          1           0        3.248722  -11.231369   -0.294195
     36          1           0        6.344700   -8.393829    1.611906
     37          1           0        7.530036   -8.464817   -0.562712
     38          1           0        6.222039   -8.657448   -2.668998
     39          1           0        3.757987   -8.777917   -2.583431
     40          1           0       -1.914184   -6.716504   -0.892724
     41          1           0        3.002355   -6.130966   -0.603536
     42          1           0        2.855206   -3.812170   -0.760432
     43          1           0        1.545375   -3.234197   -1.785526
     44          1           0        1.417065   -3.113530   -0.023985
     45          1           0       -2.848625   -4.950454   -1.750013
     46          1           0       -2.771258   -3.207813   -1.639370
     47          1           0       -4.290440   -4.131949    0.114991
     48          1           0       -2.964234   -5.082937    0.798559
     49          1           0       -2.911906   -3.316575    0.864614
     50          1           0       -0.064866  -14.447993   -0.330984
     51          1           0       -2.413702  -13.318067   -1.441104
     52          1           0       -2.527741  -13.201878    0.317976
     53          1           0       -3.529175  -15.330616   -0.492931
     54          1           0       -2.007577  -15.795653   -1.254823
     55          1           0       -2.122926  -15.676704    0.514624
     56          1           0        1.958632  -14.286308    0.675302
     57          1           0        2.067264  -14.385550   -1.088605
     58          1           0        3.323058  -13.561519   -0.169585
     59          1           0        3.358596   -9.262582    4.587327
     60          1           0        3.226872   -7.504697    4.463513
     61          1           0        4.637393   -8.149050    6.443078
     62          1           0        5.744325   -9.031115    5.381296
     63          1           0        5.610600   -7.266112    5.258067
     64          1           0       -0.577398   -3.277832   -1.023551
 ---------------------------------------------------------------------
 Rotational constants (GHZ):      0.1172501      0.1003387      0.0678616
 Leave Link  202 at Fri May  1 19:53:10 2020, MaxMem=  6710886400 cpu:         0.2
 (Enter /opt/sys/apps/gaussian09/D.01/g09/l301.exe)
 Standard basis: 6-311++G(d,p) (5D, 7F)
 Ernie: Thresh=  0.10000D-02 Tol=  0.10000D-05 Strict=F.
   943 basis functions,  1467 primitive gaussians,   976 cartesian basis functions
   118 alpha electrons      118 beta electrons
       nuclear repulsion energy      3325.3745140206 Hartrees.
 IExCor=20419 DFT=T Ex+Corr=CAM-B3LYP ExCW=0 ScaHFX=  1.000000
 ScaDFX=  1.000000  1.000000  1.000000  0.810000 ScalE2=  1.000000  1.000000
 IRadAn=      0 IRanWt=     -1 IRanGd=            0 ICorTp=0 IEmpDi=  4
  HFx wShort=  0.000000 wLong=  0.330000 cFull=  0.190000 cShort=  0.000000 cLong=  0.810000
  DFx wShort=  0.000000 wLong=  0.330000 cFull=  0.190000 cShort=  0.000000 cLong=  0.810000
 NAtoms=   64 NActive=   64 NUniq=   64 SFac= 1.00D+00 NAtFMM=   60 NAOKFM=T Big=T
 Integral buffers will be    131072 words long.
 Raffenetti 1 integral format.
 Two-electron integral symmetry is turned off.
 Leave Link  301 at Fri May  1 19:53:10 2020, MaxMem=  6710886400 cpu:         1.4
 (Enter /opt/sys/apps/gaussian09/D.01/g09/l302.exe)
 NPDir=0 NMtPBC=     1 NCelOv=     1 NCel=       1 NClECP=     1 NCelD=      1
         NCelK=      1 NCelE2=     1 NClLst=     1 CellRange=     0.0.
 One-electron integrals computed using PRISM.
 NBasis=   943 RedAO= T EigKep=  1.64D-06  NBF=   943
 NBsUse=   926 1.00D-06 EigRej=  9.53D-07 NBFU=   926
 Precomputing XC quadrature grid using
 IXCGrd= 4 IRadAn=           0 IRanWt=          -1 IRanGd=           0 AccXCQ= 0.00D+00.
 Generated NRdTot=       0 NPtTot=           0 NUsed=           0 NTot=          32
 NSgBfM=   934   934   934   934   934 MxSgAt=    64 MxSgA2=    64.
 Leave Link  302 at Fri May  1 19:53:13 2020, MaxMem=  6710886400 cpu:        54.9
 (Enter /opt/sys/apps/gaussian09/D.01/g09/l308.exe)
 Leave Link  308 at Fri May  1 19:53:14 2020, MaxMem=  6710886400 cpu:         5.7
 (Enter /opt/sys/apps/gaussian09/D.01/g09/l303.exe)
 DipDrv:  MaxL=1.
 Leave Link  303 at Fri May  1 19:53:14 2020, MaxMem=  6710886400 cpu:         4.4
 (Enter /opt/sys/apps/gaussian09/D.01/g09/l401.exe)
 ExpMin= 3.60D-02 ExpMax= 8.59D+03 ExpMxC= 1.30D+03 IAcc=3 IRadAn=         5 AccDes= 0.00D+00
 Harris functional with IExCor=20419 and IRadAn=       5 diagonalized for initial guess.
 HarFok:  IExCor=20419 AccDes= 0.00D+00 IRadAn=         5 IDoV= 1 UseB2=F ITyADJ=14
 ICtDFT=  3500011 ScaDFX=  1.000000  1.000000  1.000000  1.000000
 FoFCou: FMM=F IPFlag=           0 FMFlag=      100000 FMFlg1=        2001
         NFxFlg=           0 DoJE=T BraDBF=F KetDBF=T FulRan=T
         wScrn=  0.000000 ICntrl=     500 IOpCl=  0 I1Cent=   200000004 NGrid=           0
         NMat0=    1 NMatS0=      1 NMatT0=    0 NMatD0=    1 NMtDS0=    0 NMtDT0=    0
 Symmetry not used in FoFCou.
 Harris En= -1349.43720809849    
 JPrj=0 DoOrth=F DoCkMO=F.
 Leave Link  401 at Fri May  1 19:53:23 2020, MaxMem=  6710886400 cpu:       165.1
 (Enter /opt/sys/apps/gaussian09/D.01/g09/l502.exe)
 Closed shell SCF:
 Using DIIS extrapolation, IDIIS=  1040.
 Two-electron integral symmetry not used.
 IVT=     2905686 IEndB=     2905686 NGot=  6710886400 MDV=  6708950907
 LenX=  6708950907 LenY=  6707997355
 Requested convergence on RMS density matrix=1.00D-08 within 128 cycles.
 Requested convergence on MAX density matrix=1.00D-06.
 Requested convergence on             energy=1.00D-06.
 No special actions if energy rises.
 Fock matrices will be formed incrementally for  20 cycles.

 Cycle   1  Pass 1  IDiag  1:
 FoFJK:  IHMeth= 1 ICntrl=       0 DoSepK=T KAlg= 0 I1Cent=   0 FoldK=F
 IRaf=         1 NMat=   1 IRICut=       1 DoRegI=T DoRafI=F ISym2E= 0.
 FoFCou: FMM=T IPFlag=           0 FMFlag=      100000 FMFlg1=        2001
         NFxFlg=           0 DoJE=T BraDBF=F KetDBF=F FulRan=T
         wScrn=  0.000000 ICntrl=     500 IOpCl=  0 I1Cent=           0 NGrid=           0
         NMat0=    1 NMatS0=      1 NMatT0=    0 NMatD0=    1 NMtDS0=    0 NMtDT0=    0
 Symmetry not used in FoFCou.
 FMM levels:  10  Number of levels for PrismC:   9
 E= -1418.68042766458    
 DIIS: error= 4.85D-02 at cycle   1 NSaved=   1.
 NSaved= 1 IEnMin= 1 EnMin= -1418.68042766458     IErMin= 1 ErrMin= 4.85D-02
 ErrMax= 4.85D-02  0.00D+00 EMaxC= 1.00D-01 BMatC= 2.56D+00 BMatP= 2.56D+00
 IDIUse=3 WtCom= 5.15D-01 WtEn= 4.85D-01
 Coeff-Com:  0.100D+01
 Coeff-En:   0.100D+01
 Coeff:      0.100D+01
 Gap=     0.370 Goal=   None    Shift=    0.000
 GapD=    0.370 DampG=1.000 DampE=0.500 DampFc=0.5000 IDamp=-1.
 Damping current iteration by 5.00D-01
 RMSDP=9.03D-03 MaxDP=1.82D+00              OVMax= 1.70D-01

 Cycle   2  Pass 1  IDiag  1:
 RMSU=  4.32D-03    CP:  1.05D+00
 E= -1418.94160280330     Delta-E=       -0.261175138712 Rises=F Damp=T
 DIIS: error= 2.11D-02 at cycle   2 NSaved=   2.
 NSaved= 2 IEnMin= 2 EnMin= -1418.94160280330     IErMin= 2 ErrMin= 2.11D-02
 ErrMax= 2.11D-02  0.00D+00 EMaxC= 1.00D-01 BMatC= 5.09D-01 BMatP= 2.56D+00
 IDIUse=3 WtCom= 7.89D-01 WtEn= 2.11D-01
 Coeff-Com: -0.517D+00 0.152D+01
 Coeff-En:   0.000D+00 0.100D+01
 Coeff:     -0.408D+00 0.141D+01
 Gap=     0.265 Goal=   None    Shift=    0.000
 RMSDP=4.72D-03 MaxDP=5.92D-01 DE=-2.61D-01 OVMax= 1.48D-01

 Cycle   3  Pass 1  IDiag  1:
 RMSU=  4.55D-03    CP:  1.08D+00  1.24D+00
 E= -1419.13385460110     Delta-E=       -0.192251797809 Rises=F Damp=F
 DIIS: error= 1.36D-02 at cycle   3 NSaved=   3.
 NSaved= 3 IEnMin= 3 EnMin= -1419.13385460110     IErMin= 3 ErrMin= 1.36D-02
 ErrMax= 1.36D-02  0.00D+00 EMaxC= 1.00D-01 BMatC= 1.24D-01 BMatP= 5.09D-01
 IDIUse=3 WtCom= 8.64D-01 WtEn= 1.36D-01
 Coeff-Com: -0.314D+00 0.684D+00 0.631D+00
 Coeff-En:   0.000D+00 0.000D+00 0.100D+01
 Coeff:     -0.272D+00 0.591D+00 0.681D+00
 Gap=     0.256 Goal=   None    Shift=    0.000
 RMSDP=2.49D-03 MaxDP=3.03D-01 DE=-1.92D-01 OVMax= 6.01D-02

 Cycle   4  Pass 1  IDiag  1:
 RMSU=  1.29D-03    CP:  1.03D+00  1.54D+00  7.67D-01
 E= -1419.21599233935     Delta-E=       -0.082137738245 Rises=F Damp=F
 DIIS: error= 4.46D-03 at cycle   4 NSaved=   4.
 NSaved= 4 IEnMin= 4 EnMin= -1419.21599233935     IErMin= 4 ErrMin= 4.46D-03
 ErrMax= 4.46D-03  0.00D+00 EMaxC= 1.00D-01 BMatC= 1.09D-02 BMatP= 1.24D-01
 IDIUse=3 WtCom= 9.55D-01 WtEn= 4.46D-02
 Coeff-Com: -0.123D+00 0.263D+00 0.360D+00 0.501D+00
 Coeff-En:   0.000D+00 0.000D+00 0.000D+00 0.100D+01
 Coeff:     -0.118D+00 0.251D+00 0.344D+00 0.523D+00
 Gap=     0.251 Goal=   None    Shift=    0.000
 RMSDP=7.71D-04 MaxDP=7.25D-02 DE=-8.21D-02 OVMax= 1.33D-02

 Cycle   5  Pass 1  IDiag  1:
 RMSU=  3.32D-04    CP:  1.04D+00  1.51D+00  7.89D-01  6.06D-01
 E= -1419.22330343517     Delta-E=       -0.007311095816 Rises=F Damp=F
 DIIS: error= 4.98D-04 at cycle   5 NSaved=   5.
 NSaved= 5 IEnMin= 5 EnMin= -1419.22330343517     IErMin= 5 ErrMin= 4.98D-04
 ErrMax= 4.98D-04  0.00D+00 EMaxC= 1.00D-01 BMatC= 2.20D-04 BMatP= 1.09D-02
 IDIUse=3 WtCom= 9.95D-01 WtEn= 4.98D-03
 Coeff-Com:  0.713D-02-0.168D-01 0.193D-01 0.134D+00 0.856D+00
 Coeff-En:   0.000D+00 0.000D+00 0.000D+00 0.000D+00 0.100D+01
 Coeff:      0.709D-02-0.167D-01 0.192D-01 0.133D+00 0.857D+00
 Gap=     0.253 Goal=   None    Shift=    0.000
 RMSDP=2.58D-04 MaxDP=3.50D-02 DE=-7.31D-03 OVMax= 7.40D-03

 Cycle   6  Pass 1  IDiag  1:
 RMSU=  1.59D-04    CP:  1.04D+00  1.54D+00  8.02D-01  6.52D-01  1.09D+00
 E= -1419.22356423874     Delta-E=       -0.000260803574 Rises=F Damp=F
 DIIS: error= 3.47D-04 at cycle   6 NSaved=   6.
 NSaved= 6 IEnMin= 6 EnMin= -1419.22356423874     IErMin= 6 ErrMin= 3.47D-04
 ErrMax= 3.47D-04  0.00D+00 EMaxC= 1.00D-01 BMatC= 8.48D-05 BMatP= 2.20D-04
 IDIUse=3 WtCom= 9.97D-01 WtEn= 3.47D-03
 Coeff-Com:  0.232D-01-0.502D-01-0.472D-01-0.229D-01 0.445D+00 0.652D+00
 Coeff-En:   0.000D+00 0.000D+00 0.000D+00 0.000D+00 0.000D+00 0.100D+01
 Coeff:      0.231D-01-0.500D-01-0.471D-01-0.228D-01 0.443D+00 0.653D+00
 Gap=     0.253 Goal=   None    Shift=    0.000
 RMSDP=8.70D-05 MaxDP=9.31D-03 DE=-2.61D-04 OVMax= 2.05D-03

 Cycle   7  Pass 1  IDiag  1:
 RMSU=  4.26D-05    CP:  1.04D+00  1.54D+00  7.98D-01  6.36D-01  1.24D+00
                    CP:  1.11D+00
 E= -1419.22365347034     Delta-E=       -0.000089231598 Rises=F Damp=F
 DIIS: error= 8.18D-05 at cycle   7 NSaved=   7.
 NSaved= 7 IEnMin= 7 EnMin= -1419.22365347034     IErMin= 7 ErrMin= 8.18D-05
 ErrMax= 8.18D-05  0.00D+00 EMaxC= 1.00D-01 BMatC= 4.37D-06 BMatP= 8.48D-05
 IDIUse=1 WtCom= 1.00D+00 WtEn= 0.00D+00
 Coeff-Com:  0.603D-02-0.128D-01-0.162D-01-0.228D-01 0.419D-01 0.178D+00
 Coeff-Com:  0.826D+00
 Coeff:      0.603D-02-0.128D-01-0.162D-01-0.228D-01 0.419D-01 0.178D+00
 Coeff:      0.826D+00
 Gap=     0.254 Goal=   None    Shift=    0.000
 RMSDP=2.63D-05 MaxDP=2.32D-03 DE=-8.92D-05 OVMax= 1.69D-03

 Cycle   8  Pass 1  IDiag  1:
 RMSU=  1.25D-05    CP:  1.04D+00  1.54D+00  7.96D-01  6.31D-01  1.27D+00
                    CP:  1.18D+00  1.15D+00
 E= -1419.22366203066     Delta-E=       -0.000008560319 Rises=F Damp=F
 DIIS: error= 4.04D-05 at cycle   8 NSaved=   8.
 NSaved= 8 IEnMin= 8 EnMin= -1419.22366203066     IErMin= 8 ErrMin= 4.04D-05
 ErrMax= 4.04D-05  0.00D+00 EMaxC= 1.00D-01 BMatC= 1.29D-06 BMatP= 4.37D-06
 IDIUse=1 WtCom= 1.00D+00 WtEn= 0.00D+00
 Coeff-Com: -0.238D-02 0.524D-02 0.340D-02-0.494D-02-0.684D-01-0.645D-01
 Coeff-Com:  0.334D+00 0.798D+00
 Coeff:     -0.238D-02 0.524D-02 0.340D-02-0.494D-02-0.684D-01-0.645D-01
 Coeff:      0.334D+00 0.798D+00
 Gap=     0.254 Goal=   None    Shift=    0.000
 RMSDP=1.53D-05 MaxDP=1.53D-03 DE=-8.56D-06 OVMax= 7.50D-04

 Cycle   9  Pass 1  IDiag  1:
 RMSU=  7.05D-06    CP:  1.04D+00  1.54D+00  7.94D-01  6.27D-01  1.29D+00
                    CP:  1.20D+00  1.25D+00  1.06D+00
 E= -1419.22366427801     Delta-E=       -0.000002247349 Rises=F Damp=F
 DIIS: error= 1.73D-05 at cycle   9 NSaved=   9.
 NSaved= 9 IEnMin= 9 EnMin= -1419.22366427801     IErMin= 9 ErrMin= 1.73D-05
 ErrMax= 1.73D-05  0.00D+00 EMaxC= 1.00D-01 BMatC= 1.52D-07 BMatP= 1.29D-06
 IDIUse=1 WtCom= 1.00D+00 WtEn= 0.00D+00
 Coeff-Com: -0.143D-02 0.308D-02 0.319D-02 0.106D-02-0.209D-01-0.439D-01
 Coeff-Com: -0.389D-01 0.210D+00 0.888D+00
 Coeff:     -0.143D-02 0.308D-02 0.319D-02 0.106D-02-0.209D-01-0.439D-01
 Coeff:     -0.389D-01 0.210D+00 0.888D+00
 Gap=     0.254 Goal=   None    Shift=    0.000
 RMSDP=7.15D-06 MaxDP=1.42D-03 DE=-2.25D-06 OVMax= 3.27D-04

 Cycle  10  Pass 1  IDiag  1:
 RMSU=  4.60D-06    CP:  1.04D+00  1.54D+00  7.94D-01  6.26D-01  1.28D+00
                    CP:  1.20D+00  1.30D+00  1.18D+00  1.13D+00
 E= -1419.22366462798     Delta-E=       -0.000000349977 Rises=F Damp=F
 DIIS: error= 4.68D-06 at cycle  10 NSaved=  10.
 NSaved=10 IEnMin=10 EnMin= -1419.22366462798     IErMin=10 ErrMin= 4.68D-06
 ErrMax= 4.68D-06  0.00D+00 EMaxC= 1.00D-01 BMatC= 2.31D-08 BMatP= 1.52D-07
 IDIUse=1 WtCom= 1.00D+00 WtEn= 0.00D+00
 Coeff-Com: -0.117D-04 0.113D-04 0.306D-03 0.561D-03 0.497D-02-0.408D-02
 Coeff-Com: -0.637D-01-0.574D-01 0.282D+00 0.837D+00
 Coeff:     -0.117D-04 0.113D-04 0.306D-03 0.561D-03 0.497D-02-0.408D-02
 Coeff:     -0.637D-01-0.574D-01 0.282D+00 0.837D+00
 Gap=     0.254 Goal=   None    Shift=    0.000
 RMSDP=3.04D-06 MaxDP=2.89D-04 DE=-3.50D-07 OVMax= 1.60D-04

 Cycle  11  Pass 1  IDiag  1:
 RMSU=  1.04D-06    CP:  1.04D+00  1.54D+00  7.94D-01  6.24D-01  1.29D+00
                    CP:  1.19D+00  1.31D+00  1.23D+00  1.21D+00  9.90D-01
 E= -1419.22366468999     Delta-E=       -0.000000062008 Rises=F Damp=F
 DIIS: error= 3.39D-06 at cycle  11 NSaved=  11.
 NSaved=11 IEnMin=11 EnMin= -1419.22366468999     IErMin=11 ErrMin= 3.39D-06
 ErrMax= 3.39D-06  0.00D+00 EMaxC= 1.00D-01 BMatC= 3.83D-09 BMatP= 2.31D-08
 IDIUse=1 WtCom= 1.00D+00 WtEn= 0.00D+00
 Coeff-Com:  0.171D-03-0.370D-03-0.325D-03-0.491D-05 0.401D-02 0.402D-02
 Coeff-Com: -0.115D-01-0.414D-01-0.564D-01 0.236D+00 0.865D+00
 Coeff:      0.171D-03-0.370D-03-0.325D-03-0.491D-05 0.401D-02 0.402D-02
 Coeff:     -0.115D-01-0.414D-01-0.564D-01 0.236D+00 0.865D+00
 Gap=     0.254 Goal=   None    Shift=    0.000
 RMSDP=1.30D-06 MaxDP=2.07D-04 DE=-6.20D-08 OVMax= 5.86D-05

 Cycle  12  Pass 1  IDiag  1:
 RMSU=  5.06D-07    CP:  1.04D+00  1.54D+00  7.94D-01  6.24D-01  1.29D+00
                    CP:  1.19D+00  1.31D+00  1.23D+00  1.19D+00  1.15D+00
                    CP:  1.26D+00
 E= -1419.22366470215     Delta-E=       -0.000000012162 Rises=F Damp=F
 DIIS: error= 2.44D-06 at cycle  12 NSaved=  12.
 NSaved=12 IEnMin=12 EnMin= -1419.22366470215     IErMin=12 ErrMin= 2.44D-06
 ErrMax= 2.44D-06  0.00D+00 EMaxC= 1.00D-01 BMatC= 7.53D-10 BMatP= 3.83D-09
 IDIUse=1 WtCom= 1.00D+00 WtEn= 0.00D+00
 Coeff-Com:  0.560D-04-0.119D-03-0.166D-03-0.101D-03 0.433D-03 0.225D-02
 Coeff-Com:  0.986D-02 0.386D-03-0.842D-01-0.699D-01 0.254D+00 0.888D+00
 Coeff:      0.560D-04-0.119D-03-0.166D-03-0.101D-03 0.433D-03 0.225D-02
 Coeff:      0.986D-02 0.386D-03-0.842D-01-0.699D-01 0.254D+00 0.888D+00
 Gap=     0.254 Goal=   None    Shift=    0.000
 RMSDP=5.56D-07 MaxDP=6.96D-05 DE=-1.22D-08 OVMax= 3.54D-05

 Cycle  13  Pass 1  IDiag  1:
 RMSU=  1.84D-07    CP:  1.04D+00  1.54D+00  7.94D-01  6.24D-01  1.29D+00
                    CP:  1.19D+00  1.31D+00  1.23D+00  1.18D+00  1.21D+00
                    CP:  1.47D+00  1.33D+00
 E= -1419.22366470519     Delta-E=       -0.000000003041 Rises=F Damp=F
 DIIS: error= 8.41D-07 at cycle  13 NSaved=  13.
 NSaved=13 IEnMin=13 EnMin= -1419.22366470519     IErMin=13 ErrMin= 8.41D-07
 ErrMax= 8.41D-07  0.00D+00 EMaxC= 1.00D-01 BMatC= 2.32D-10 BMatP= 7.53D-10
 IDIUse=1 WtCom= 1.00D+00 WtEn= 0.00D+00
 Coeff-Com: -0.146D-04 0.326D-04 0.690D-05-0.541D-04-0.753D-03-0.840D-04
 Coeff-Com:  0.562D-02 0.103D-01-0.218D-01-0.694D-01-0.125D+00 0.327D+00
 Coeff-Com:  0.874D+00
 Coeff:     -0.146D-04 0.326D-04 0.690D-05-0.541D-04-0.753D-03-0.840D-04
 Coeff:      0.562D-02 0.103D-01-0.218D-01-0.694D-01-0.125D+00 0.327D+00
 Coeff:      0.874D+00
 Gap=     0.254 Goal=   None    Shift=    0.000
 RMSDP=5.79D-07 MaxDP=5.79D-05 DE=-3.04D-09 OVMax= 2.18D-05

 Cycle  14  Pass 1  IDiag  1:
 RMSU=  1.59D-07    CP:  1.04D+00  1.54D+00  7.94D-01  6.24D-01  1.29D+00
                    CP:  1.19D+00  1.30D+00  1.23D+00  1.16D+00  1.25D+00
                    CP:  1.58D+00  1.68D+00  1.56D+00
 E= -1419.22366470625     Delta-E=       -0.000000001057 Rises=F Damp=F
 DIIS: error= 5.13D-07 at cycle  14 NSaved=  14.
 NSaved=14 IEnMin=14 EnMin= -1419.22366470625     IErMin=14 ErrMin= 5.13D-07
 ErrMax= 5.13D-07  0.00D+00 EMaxC= 1.00D-01 BMatC= 5.18D-11 BMatP= 2.32D-10
 IDIUse=1 WtCom= 1.00D+00 WtEn= 0.00D+00
 Coeff-Com: -0.142D-04 0.306D-04 0.345D-04-0.842D-05-0.334D-03-0.416D-03
 Coeff-Com: -0.362D-03 0.401D-02 0.943D-02-0.693D-02-0.110D+00-0.863D-01
 Coeff-Com:  0.341D+00 0.849D+00
 Coeff:     -0.142D-04 0.306D-04 0.345D-04-0.842D-05-0.334D-03-0.416D-03
 Coeff:     -0.362D-03 0.401D-02 0.943D-02-0.693D-02-0.110D+00-0.863D-01
 Coeff:      0.341D+00 0.849D+00
 Gap=     0.254 Goal=   None    Shift=    0.000
 RMSDP=2.16D-07 MaxDP=2.89D-05 DE=-1.06D-09 OVMax= 8.62D-06

 Cycle  15  Pass 1  IDiag  1:
 RMSU=  4.68D-08    CP:  1.04D+00  1.54D+00  7.94D-01  6.24D-01  1.29D+00
                    CP:  1.19D+00  1.30D+00  1.23D+00  1.16D+00  1.27D+00
                    CP:  1.62D+00  1.85D+00  1.87D+00  1.13D+00
 E= -1419.22366470629     Delta-E=       -0.000000000041 Rises=F Damp=F
 DIIS: error= 1.26D-07 at cycle  15 NSaved=  15.
 NSaved=15 IEnMin=15 EnMin= -1419.22366470629     IErMin=15 ErrMin= 1.26D-07
 ErrMax= 1.26D-07  0.00D+00 EMaxC= 1.00D-01 BMatC= 4.41D-12 BMatP= 5.18D-11
 IDIUse=1 WtCom= 1.00D+00 WtEn= 0.00D+00
 Coeff-Com:  0.253D-07-0.163D-06 0.556D-05 0.569D-05 0.384D-04-0.416D-04
 Coeff-Com: -0.102D-02-0.733D-03 0.518D-02 0.100D-01 0.170D-02-0.698D-01
 Coeff-Com: -0.825D-01 0.151D+00 0.986D+00
 Coeff:      0.253D-07-0.163D-06 0.556D-05 0.569D-05 0.384D-04-0.416D-04
 Coeff:     -0.102D-02-0.733D-03 0.518D-02 0.100D-01 0.170D-02-0.698D-01
 Coeff:     -0.825D-01 0.151D+00 0.986D+00
 Gap=     0.254 Goal=   None    Shift=    0.000
 RMSDP=1.04D-07 MaxDP=9.89D-06 DE=-4.09D-11 OVMax= 3.58D-06

 Cycle  16  Pass 1  IDiag  1:
 RMSU=  2.19D-08    CP:  1.04D+00  1.54D+00  7.94D-01  6.24D-01  1.29D+00
                    CP:  1.19D+00  1.30D+00  1.23D+00  1.16D+00  1.27D+00
                    CP:  1.63D+00  1.93D+00  2.01D+00  1.34D+00  1.23D+00
 E= -1419.22366470632     Delta-E=       -0.000000000026 Rises=F Damp=F
 DIIS: error= 4.63D-08 at cycle  16 NSaved=  16.
 NSaved=16 IEnMin=16 EnMin= -1419.22366470632     IErMin=16 ErrMin= 4.63D-08
 ErrMax= 4.63D-08  0.00D+00 EMaxC= 1.00D-01 BMatC= 9.62D-13 BMatP= 4.41D-12
 IDIUse=1 WtCom= 1.00D+00 WtEn= 0.00D+00
 Coeff-Com:  0.102D-05-0.227D-05-0.627D-06 0.494D-05 0.437D-04 0.311D-04
 Coeff-Com: -0.301D-03-0.672D-03 0.780D-03 0.413D-02 0.145D-01-0.135D-01
 Coeff-Com: -0.699D-01-0.657D-01 0.352D+00 0.779D+00
 Coeff:      0.102D-05-0.227D-05-0.627D-06 0.494D-05 0.437D-04 0.311D-04
 Coeff:     -0.301D-03-0.672D-03 0.780D-03 0.413D-02 0.145D-01-0.135D-01
 Coeff:     -0.699D-01-0.657D-01 0.352D+00 0.779D+00
 Gap=     0.254 Goal=   None    Shift=    0.000
 RMSDP=2.79D-08 MaxDP=2.65D-06 DE=-2.64D-11 OVMax= 7.15D-07

 Cycle  17  Pass 1  IDiag  1:
 RMSU=  1.34D-08    CP:  1.04D+00  1.54D+00  7.94D-01  6.24D-01  1.29D+00
                    CP:  1.19D+00  1.30D+00  1.23D+00  1.16D+00  1.28D+00
                    CP:  1.63D+00  1.94D+00  2.04D+00  1.40D+00  1.39D+00
                    CP:  1.23D+00
 E= -1419.22366470627     Delta-E=        0.000000000045 Rises=F Damp=F
 DIIS: error= 9.59D-09 at cycle  17 NSaved=  17.
 NSaved=17 IEnMin=16 EnMin= -1419.22366470632     IErMin=17 ErrMin= 9.59D-09
 ErrMax= 9.59D-09  0.00D+00 EMaxC= 1.00D-01 BMatC= 9.27D-14 BMatP= 9.62D-13
 IDIUse=1 WtCom= 1.00D+00 WtEn= 0.00D+00
 Coeff-Com:  0.300D-06-0.636D-06-0.104D-05 0.792D-06 0.547D-05 0.178D-04
 Coeff-Com:  0.646D-04-0.982D-04-0.583D-03-0.458D-03 0.402D-02 0.596D-02
 Coeff-Com: -0.658D-02-0.446D-01-0.334D-01 0.196D+00 0.879D+00
 Coeff:      0.300D-06-0.636D-06-0.104D-05 0.792D-06 0.547D-05 0.178D-04
 Coeff:      0.646D-04-0.982D-04-0.583D-03-0.458D-03 0.402D-02 0.596D-02
 Coeff:     -0.658D-02-0.446D-01-0.334D-01 0.196D+00 0.879D+00
 Gap=     0.254 Goal=   None    Shift=    0.000
 RMSDP=2.19D-08 MaxDP=1.26D-06 DE= 4.46D-11 OVMax= 3.08D-07

 Cycle  18  Pass 1  IDiag  1:
 RMSU=  1.65D-08    CP:  1.04D+00  1.54D+00  7.94D-01  6.24D-01  1.29D+00
                    CP:  1.19D+00  1.30D+00  1.23D+00  1.16D+00  1.28D+00
                    CP:  1.63D+00  1.94D+00  2.04D+00  1.41D+00  1.43D+00
                    CP:  1.55D+00  1.45D+00
 E= -1419.22366470616     Delta-E=        0.000000000110 Rises=F Damp=F
 DIIS: error= 5.10D-09 at cycle  18 NSaved=  18.
 NSaved=18 IEnMin=16 EnMin= -1419.22366470632     IErMin=18 ErrMin= 5.10D-09
 ErrMax= 5.10D-09  0.00D+00 EMaxC= 1.00D-01 BMatC= 2.27D-14 BMatP= 9.27D-14
 IDIUse=1 WtCom= 1.00D+00 WtEn= 0.00D+00
 Coeff-Com:  0.908D-07-0.185D-06-0.412D-06-0.316D-06-0.665D-06 0.518D-05
 Coeff-Com:  0.450D-04 0.168D-04-0.243D-03-0.457D-03 0.245D-03 0.286D-02
 Coeff-Com:  0.392D-02-0.105D-01-0.360D-01-0.201D-02 0.281D+00 0.761D+00
 Coeff:      0.908D-07-0.185D-06-0.412D-06-0.316D-06-0.665D-06 0.518D-05
 Coeff:      0.450D-04 0.168D-04-0.243D-03-0.457D-03 0.245D-03 0.286D-02
 Coeff:      0.392D-02-0.105D-01-0.360D-01-0.201D-02 0.281D+00 0.761D+00
 Gap=     0.254 Goal=   None    Shift=    0.000
 RMSDP=2.23D-08 MaxDP=2.00D-06 DE= 1.10D-10 OVMax= 5.76D-08

 Cycle  19  Pass 1  IDiag  1:
 RMSU=  1.70D-08    CP:  1.04D+00  1.54D+00  7.94D-01  6.24D-01  1.29D+00
                    CP:  1.19D+00  1.30D+00  1.23D+00  1.16D+00  1.28D+00
                    CP:  1.63D+00  1.94D+00  2.05D+00  1.41D+00  1.49D+00
                    CP:  1.61D+00  1.84D+00  1.59D+00
 E= -1419.22366470618     Delta-E=       -0.000000000020 Rises=F Damp=F
 DIIS: error= 7.94D-09 at cycle  19 NSaved=  19.
 NSaved=19 IEnMin=16 EnMin= -1419.22366470632     IErMin=18 ErrMin= 5.10D-09
 ErrMax= 7.94D-09  0.00D+00 EMaxC= 1.00D-01 BMatC= 2.48D-14 BMatP= 2.27D-14
 IDIUse=1 WtCom= 1.00D+00 WtEn= 0.00D+00
 Coeff-Com:  0.824D-07-0.169D-06-0.364D-06-0.276D-06-0.512D-06 0.463D-05
 Coeff-Com:  0.393D-04 0.135D-04-0.214D-03-0.399D-03 0.242D-03 0.251D-02
 Coeff-Com:  0.337D-02-0.948D-02-0.313D-01-0.735D-03 0.246D+00 0.657D+00
 Coeff-Com:  0.133D+00
 Coeff:      0.824D-07-0.169D-06-0.364D-06-0.276D-06-0.512D-06 0.463D-05
 Coeff:      0.393D-04 0.135D-04-0.214D-03-0.399D-03 0.242D-03 0.251D-02
 Coeff:      0.337D-02-0.948D-02-0.313D-01-0.735D-03 0.246D+00 0.657D+00
 Coeff:      0.133D+00
 Gap=     0.254 Goal=   None    Shift=    0.000
 RMSDP=5.51D-09 MaxDP=4.97D-07 DE=-2.00D-11 OVMax= 5.14D-09

 SCF Done:  E(RCAM-B3LYP) =  -1419.22366471     A.U. after   19 cycles
            NFock= 19  Conv=0.55D-08     -V/T= 2.0041
 KE= 1.413439962456D+03 PE=-9.929899672483D+03 EE= 3.771861531301D+03
 Leave Link  502 at Fri May  1 20:02:29 2020, MaxMem=  6710886400 cpu:     12738.2
 (Enter /opt/sys/apps/gaussian09/D.01/g09/l801.exe)
 DoSCS=F DFT=T ScalE2(SS,OS)=  1.000000  1.000000
 ExpMin= 3.60D-02 ExpMax= 8.59D+03 ExpMxC= 1.30D+03 IAcc=3 IRadAn=         5 AccDes= 0.00D+00
 HarFok:  IExCor=  205 AccDes= 0.00D+00 IRadAn=         5 IDoV=-2 UseB2=F ITyADJ=14
 ICtDFT= 12500011 ScaDFX=  1.000000  1.000000  1.000000  1.000000
 Largest valence mixing into a core orbital is  4.59D-05
 Largest core mixing into a valence orbital is  1.08D-05
 Range of M.O.s used for correlation:    34   926
 NBasis=   943 NAE=   118 NBE=   118 NFC=    33 NFV=     0
 NROrb=    893 NOA=    85 NOB=    85 NVA=   808 NVB=   808

 **** Warning!!: The largest alpha MO coefficient is  0.11700443D+03

 Leave Link  801 at Fri May  1 20:02:30 2020, MaxMem=  6710886400 cpu:        13.6
 (Enter /opt/sys/apps/gaussian09/D.01/g09/l914.exe)
 RHF ground state
 MDV=  6710886400 DFT=T DoStab=F Mixed=T DoRPA=T DoScal=F NonHer=T
 Would need an additional        599111800000 words for in-memory AO integral storage.
 Making orbital integer symmetry assigments:
   120 initial guesses have been made.
 Convergence on wavefunction:    0.000001000000000
 Davidson Disk Diagonalization:  ConvIn= 1.00D-06 SkipCon=T Conv= 1.00D-06.
 Max sub-space:   480 roots to seek:   120 dimension of matrix:       137360
 Iteration     1 Dimension   120 NMult     0 NNew    120
 CISAX will form   120 AO SS matrices at one time.
 NMat=   120 NSing=   120 JSym2X= 0.
 FoFJK:  IHMeth= 1 ICntrl=       0 DoSepK=T KAlg= 0 I1Cent=   0 FoldK=F
 IRaf=         1 NMat= 240 IRICut=       1 DoRegI=T DoRafI=F ISym2E= 0.
 FoFCou: FMM=T IPFlag=           0 FMFlag=      100000 FMFlg1=        2001
         NFxFlg=           0 DoJE=F BraDBF=F KetDBF=F FulRan=T
         wScrn=  0.000000 ICntrl=     500 IOpCl=  0 I1Cent=           0 NGrid=           0
         NMat0=  120 NMatS0=    120 NMatT0=    0 NMatD0=  120 NMtDS0=    0 NMtDT0=    0
 Symmetry not used in FoFCou.
 FMM levels:  10  Number of levels for PrismC:   9
 New state      3 was old state      9
 New state      4 was old state      6
 New state      5 was old state      3
 New state      6 was old state     34
 New state      7 was old state      5
 New state      8 was old state      4
 New state      9 was old state      7
 New state     10 was old state     13
 New state     11 was old state     83
 New state     12 was old state      8
 New state     13 was old state     18
 New state     14 was old state     15
 New state     15 was old state     10
 New state     16 was old state     37
 New state     17 was old state     12
 New state     18 was old state     11
 New state     19 was old state     29
 New state     20 was old state     16
 New state     21 was old state     19
 New state     22 was old state     71
 New state     23 was old state     14
 New state     24 was old state     17
 New state     25 was old state     26
 New state     26 was old state     42
 New state     28 was old state     21
 New state     29 was old state     25
 New state     30 was old state     31
 Excitation Energies [eV] at current iteration:
 Root      1 :     3.773278908057932
 Root      2 :     4.489498402206721
 Root      3 :     5.201187857412552
 Root      4 :     5.381911860516936
 Root      5 :     5.427620540811801
 Root      6 :     5.575906103591784
 Root      7 :     5.638798282067667
 Root      8 :     5.813460033522415
 Root      9 :     5.989834737556054
 Root     10 :     6.045885178279526
 Root     11 :     6.186563324111890
 Root     12 :     6.233960758591644
 Root     13 :     6.302884468860760
 Root     14 :     6.455665377871218
 Root     15 :     6.503155958439994
 Root     16 :     6.632499753631808
 Root     17 :     6.773993555888900
 Root     18 :     6.813533617615565
 Root     19 :     6.877155011750371
 Root     20 :     6.980856800178130
 Root     21 :     7.016607542942689
 Root     22 :     7.040747012819439
 Root     23 :     7.140490784242597
 Root     24 :     7.177336808748328
 Root     25 :     7.258498114346375
 Root     26 :     7.334174448180448
 Root     27 :     7.420792347572631
 Root     28 :     7.464172949744142
 Root     29 :     7.491502522573606
 Root     30 :     7.559288518138219
 Root     31 :     7.565216924054122
 Root     32 :     7.673420246322303
 Root     33 :     7.690300998308832
 Root     34 :     7.738924203531724
 Root     35 :     7.790287879965109
 Root     36 :     7.865136669306156
 Root     37 :     7.911306638001015
 Root     38 :     7.918340245433654
 Root     39 :     7.922512021875949
 Root     40 :     7.962029980779715
 Root     41 :     8.036955607811848
 Root     42 :     8.043810470025225
 Root     43 :     8.050126836179141
 Root     44 :     8.054739885848226
 Root     45 :     8.143855642465432
 Root     46 :     8.150550466691080
 Root     47 :     8.192724273391171
 Root     48 :     8.213628974304450
 Root     49 :     8.250224096471072
 Root     50 :     8.306192639468378
 Root     51 :     8.333286374041240
 Root     52 :     8.366836090697554
 Root     53 :     8.391326875028378
 Root     54 :     8.396976525905563
 Root     55 :     8.413675586931856
 Root     56 :     8.441842687597521
 Root     57 :     8.450375531367071
 Root     58 :     8.454084714675322
 Root     59 :     8.489398490588897
 Root     60 :     8.541564170350302
 Root     61 :     8.566892416061314
 Root     62 :     8.596943739181459
 Root     63 :     8.626227644836701
 Root     64 :     8.676683840390663
 Root     65 :     8.695704214012512
 Root     66 :     8.732058764993617
 Root     67 :     8.753871716176215
 Root     68 :     8.847709422084280
 Root     69 :     8.863857520621051
 Root     70 :     8.896497978973514
 Root     71 :     8.914486122537502
 Root     72 :     8.927126925932791
 Root     73 :     8.947261409228890
 Root     74 :     8.953386193568535
 Root     75 :     8.962311805439798
 Root     76 :     8.981337941146561
 Root     77 :     8.987224811857798
 Root     78 :     9.025227111354177
 Root     79 :     9.048333071172946
 Root     80 :     9.062470891938945
 Root     81 :     9.072176790769289
 Root     82 :     9.095319328475382
 Root     83 :     9.114742460690877
 Root     84 :     9.137709275995832
 Root     85 :     9.169792739111939
 Root     86 :     9.194096982857380
 Root     87 :     9.208015599439626
 Root     88 :     9.211596270147723
 Root     89 :     9.220526654369303
 Root     90 :     9.249493811579388
 Root     91 :     9.254874693706304
 Root     92 :     9.274167993090808
 Root     93 :     9.300352623940672
 Root     94 :     9.331948176656704
 Root     95 :     9.367853137728057
 Root     96 :     9.397847415461845
 Root     97 :     9.409031719836301
 Root     98 :     9.459864898000227
 Root     99 :     9.482636507820784
 Root    100 :     9.529256033721007
 Root    101 :     9.530457269703433
 Root    102 :     9.547258753243467
 Root    103 :     9.556389986341264
 Root    104 :     9.573800017868225
 Root    105 :     9.593151917934467
 Root    106 :     9.601867608309735
 Root    107 :     9.609485653711932
 Root    108 :     9.638390818310519
 Root    109 :     9.666872088880185
 Root    110 :     9.735478523965122
 Root    111 :     9.744686323790310
 Root    112 :     9.760821150001735
 Root    113 :     9.798484974052512
 Root    114 :     9.800939961960681
 Root    115 :     9.829915612609724
 Root    116 :     9.863994620197509
 Root    117 :     9.906720577323878
 Root    118 :     9.987291242649876
 Root    119 :    10.070798780673970
 Root    120 :    10.098262489571070
 Iteration     2 Dimension   180 NMult   120 NNew     60
 CISAX will form    60 AO SS matrices at one time.
 NMat=    60 NSing=    60 JSym2X= 0.
 Root      1 not converged, maximum delta is    0.038922845867530
 Root      2 not converged, maximum delta is    0.051275650108607
 Root      3 not converged, maximum delta is    0.051238464955562
 New state      4 was old state      5
 Root      4 not converged, maximum delta is    0.094023233452148
 New state      5 was old state      4
 Root      5 not converged, maximum delta is    0.074206295112131
 Root      6 not converged, maximum delta is    0.219331735948058
 New state      7 was old state      9
 Root      7 not converged, maximum delta is    0.358622513547842
 New state      8 was old state     11
 Root      8 not converged, maximum delta is    0.171396977462288
 New state      9 was old state      7
 Root      9 not converged, maximum delta is    0.100479138836606
 Root     10 not converged, maximum delta is    0.099812650881912
 New state     11 was old state      8
 Root     11 not converged, maximum delta is    0.171732147134698
 New state     12 was old state     13
 Root     12 not converged, maximum delta is    0.337980447180981
 New state     13 was old state     14
 Root     13 not converged, maximum delta is    0.291116874127007
 New state     14 was old state     12
 Root     14 not converged, maximum delta is    0.055967144140052
 New state     15 was old state     16
 Root     15 not converged, maximum delta is    0.359458617889603
 New state     16 was old state     15
 Root     16 not converged, maximum delta is    0.102507761806571
 New state     17 was old state     19
 Root     17 not converged, maximum delta is    0.214857310087661
 New state     18 was old state     22
 Root     18 not converged, maximum delta is    0.111006617194115
 New state     19 was old state     26
 Root     19 not converged, maximum delta is    0.205566579994676
 New state     20 was old state     18
 Root     20 not converged, maximum delta is    0.291057718413266
 New state     21 was old state     17
 Root     21 not converged, maximum delta is    0.317237810228405
 New state     22 was old state     21
 Root     22 not converged, maximum delta is    0.292351874688787
 New state     23 was old state     24
 Root     23 not converged, maximum delta is    0.143725813761275
 New state     24 was old state     20
 Root     24 not converged, maximum delta is    0.216485098798958
 New state     25 was old state     23
 Root     25 not converged, maximum delta is    0.276217682880047
 New state     26 was old state     25
 Root     26 not converged, maximum delta is    0.166561299535629
 New state     27 was old state     28
 Root     27 not converged, maximum delta is    0.261742732051538
 New state     28 was old state     29
 Root     28 not converged, maximum delta is    0.148981302680979
 New state     29 was old state     27
 Root     29 not converged, maximum delta is    0.235650307897603
 Root     30 not converged, maximum delta is    0.273765220512198
 Excitation Energies [eV] at current iteration:
 Root      1 :     3.206662649312478   Change is   -0.566616258745454
 Root      2 :     4.011021616371289   Change is   -0.478476785835432
 Root      3 :     4.808838047261974   Change is   -0.392349810150578
 Root      4 :     4.868560885203434   Change is   -0.559059655608367
 Root      5 :     5.038863777416783   Change is   -0.343048083100153
 Root      6 :     5.245996860525976   Change is   -0.329909243065808
 Root      7 :     5.309452981209629   Change is   -0.680381756346425
 Root      8 :     5.404473256778679   Change is   -0.782090067333211
 Root      9 :     5.499731910216477   Change is   -0.139066371851190
 Root     10 :     5.605286769447748   Change is   -0.440598408831779
 Root     11 :     5.687858924204953   Change is   -0.125601109317463
 Root     12 :     5.738542705425205   Change is   -0.564341763435555
 Root     13 :     5.858573482286049   Change is   -0.597091895585169
 Root     14 :     5.991528084526176   Change is   -0.242432674065468
 Root     15 :     6.098103116694245   Change is   -0.534396636937563
 Root     16 :     6.194077271292897   Change is   -0.309078687147098
 Root     17 :     6.235111445358181   Change is   -0.642043566392190
 Root     18 :     6.426282629794125   Change is   -0.614464383025315
 Root     19 :     6.489433427785888   Change is   -0.844741020394561
 Root     20 :     6.536239757440584   Change is   -0.277293860174981
 Root     21 :     6.598861214470905   Change is   -0.175132341417995
 Root     22 :     6.722498569767476   Change is   -0.294108973175213
 Root     23 :     6.839562992005947   Change is   -0.337773816742382
 Root     24 :     6.894680032423198   Change is   -0.086176767754932
 Root     25 :     6.945560201890852   Change is   -0.194930582351745
 Root     26 :     7.069007668334770   Change is   -0.189490446011605
 Root     27 :     7.113231894076652   Change is   -0.350941055667491
 Root     28 :     7.151288991726550   Change is   -0.340213530847057
 Root     29 :     7.200839421238673   Change is   -0.219952926333958
 Root     30 :     7.212908943353022   Change is   -0.346379574785197
 Iteration     3 Dimension   240 NMult   180 NNew     60
 CISAX will form    60 AO SS matrices at one time.
 NMat=    60 NSing=    60 JSym2X= 0.
 Root      1 not converged, maximum delta is    0.003141538737215
 Root      2 not converged, maximum delta is    0.015316358467864
 Root      3 not converged, maximum delta is    0.005778169155579
 Root      4 not converged, maximum delta is    0.010518944431313
 Root      5 not converged, maximum delta is    0.009098235797658
 Root      6 not converged, maximum delta is    0.030930196890296
 Root      7 not converged, maximum delta is    0.035230248967467
 Root      8 not converged, maximum delta is    0.029270217939272
 Root      9 not converged, maximum delta is    0.023627173227575
 Root     10 not converged, maximum delta is    0.027094076006909
 Root     11 not converged, maximum delta is    0.082638678831437
 Root     12 not converged, maximum delta is    0.114282026215626
 Root     13 not converged, maximum delta is    0.023803466746404
 Root     14 not converged, maximum delta is    0.005653280246191
 Root     15 not converged, maximum delta is    0.010224683315108
 Root     16 not converged, maximum delta is    0.089675911229005
 Root     17 not converged, maximum delta is    0.127881889010535
 Root     18 not converged, maximum delta is    0.021309257776711
 Root     19 not converged, maximum delta is    0.037288029244874
 Root     20 not converged, maximum delta is    0.020876551473257
 Root     21 not converged, maximum delta is    0.030145271515501
 Root     22 not converged, maximum delta is    0.014188334774670
 Root     23 not converged, maximum delta is    0.117027969396198
 New state     24 was old state     28
 Root     24 not converged, maximum delta is    0.381414546106359
 New state     25 was old state     24
 Root     25 not converged, maximum delta is    0.056534242206579
 New state     26 was old state     25
 Root     26 not converged, maximum delta is    0.054723022855131
 Root     27 not converged, maximum delta is    0.267504052320554
 New state     28 was old state     26
 Root     28 not converged, maximum delta is    0.092303180324459
 New state     29 was old state     30
 Root     29 not converged, maximum delta is    0.349721992409941
 No map to state     30
 Excitation Energies [eV] at current iteration:
 Root      1 :     3.176398627740973   Change is   -0.030264021571504
 Root      2 :     3.983926995985609   Change is   -0.027094620385679
 Root      3 :     4.792496599387987   Change is   -0.016341447873986
 Root      4 :     4.837168398581173   Change is   -0.031392486622261
 Root      5 :     5.025285456039235   Change is   -0.013578321377548
 Root      6 :     5.220161785712046   Change is   -0.025835074813931
 Root      7 :     5.278581570431432   Change is   -0.030871410778197
 Root      8 :     5.301444953172838   Change is   -0.103028303605841
 Root      9 :     5.494416762367159   Change is   -0.005315147849318
 Root     10 :     5.584715185163976   Change is   -0.020571584283772
 Root     11 :     5.676812159864321   Change is   -0.011046764340632
 Root     12 :     5.716558608315066   Change is   -0.021984097110139
 Root     13 :     5.825573026644828   Change is   -0.033000455641221
 Root     14 :     5.980063800214929   Change is   -0.011464284311247
 Root     15 :     6.075948144361829   Change is   -0.022154972332416
 Root     16 :     6.169779442516184   Change is   -0.024297828776713
 Root     17 :     6.190775178895401   Change is   -0.044336266462781
 Root     18 :     6.382101976199589   Change is   -0.044180653594536
 Root     19 :     6.399902708462827   Change is   -0.089530719323060
 Root     20 :     6.512116214899418   Change is   -0.024123542541165
 Root     21 :     6.583180345533144   Change is   -0.015680868937761
 Root     22 :     6.702310614648406   Change is   -0.020187955119070
 Root     23 :     6.798371479350447   Change is   -0.041191512655500
 Root     24 :     6.857343110143981   Change is   -0.293945881582568
 Root     25 :     6.865181706770445   Change is   -0.029498325652753
 Root     26 :     6.921131768912232   Change is   -0.024428432978621
 Root     27 :     7.012758100665055   Change is   -0.100473793411597
 Root     28 :     7.030572036864176   Change is   -0.038435631470594
 Root     29 :     7.093557124291459   Change is   -0.119351819061562
 Root     30 :     7.142893264996483
 Iteration     4 Dimension   300 NMult   240 NNew     60
 CISAX will form    60 AO SS matrices at one time.
 NMat=    60 NSing=    60 JSym2X= 0.
 Root      1 not converged, maximum delta is    0.000962208516253
 Root      2 not converged, maximum delta is    0.002316282966022
 Root      3 not converged, maximum delta is    0.001168145474155
 Root      4 not converged, maximum delta is    0.003358801446281
 Root      5 not converged, maximum delta is    0.004722553493320
 Root      6 not converged, maximum delta is    0.002434492082672
 Root      7 not converged, maximum delta is    0.003985232698245
 Root      8 not converged, maximum delta is    0.006690235228041
 Root      9 not converged, maximum delta is    0.002133149134526
 Root     10 not converged, maximum delta is    0.002503998384668
 Root     11 not converged, maximum delta is    0.010488943959343
 Root     12 not converged, maximum delta is    0.016577250163865
 Root     13 not converged, maximum delta is    0.008024961818738
 Root     14 not converged, maximum delta is    0.001389581215086
 Root     15 not converged, maximum delta is    0.007035556665178
 Root     16 not converged, maximum delta is    0.027812331286893
 Root     17 not converged, maximum delta is    0.040401139358645
 Root     18 not converged, maximum delta is    0.006742123101376
 Root     19 not converged, maximum delta is    0.009367057296166
 Root     20 not converged, maximum delta is    0.005395432035229
 Root     21 not converged, maximum delta is    0.027595723834655
 Root     22 not converged, maximum delta is    0.060874697329886
 Root     23 not converged, maximum delta is    0.177013644345364
 New state     24 was old state     27
 Root     24 not converged, maximum delta is    0.275812586569592
 New state     25 was old state     24
 Root     25 not converged, maximum delta is    0.224662383653078
 New state     26 was old state     25
 Root     26 not converged, maximum delta is    0.041901575173390
 New state     27 was old state     26
 Root     27 not converged, maximum delta is    0.060158924893523
 New state     28 was old state     30
 Root     28 not converged, maximum delta is    0.293020014269490
 New state     29 was old state     28
 Root     29 not converged, maximum delta is    0.057211757458874
 New state     30 was old state     29
 Root     30 not converged, maximum delta is    0.205481487486181
 Excitation Energies [eV] at current iteration:
 Root      1 :     3.175225890042829   Change is   -0.001172737698145
 Root      2 :     3.981916087545279   Change is   -0.002010908440330
 Root      3 :     4.791672998241651   Change is   -0.000823601146336
 Root      4 :     4.834102587516965   Change is   -0.003065811064208
 Root      5 :     5.023873141633189   Change is   -0.001412314406047
 Root      6 :     5.218360428553383   Change is   -0.001801357158663
 Root      7 :     5.275870241520707   Change is   -0.002711328910725
 Root      8 :     5.294072924172714   Change is   -0.007372029000124
 Root      9 :     5.494016502762960   Change is   -0.000400259604198
 Root     10 :     5.583163639048036   Change is   -0.001551546115940
 Root     11 :     5.675393177238687   Change is   -0.001418982625634
 Root     12 :     5.714738215182717   Change is   -0.001820393132349
 Root     13 :     5.821195732190567   Change is   -0.004377294454261
 Root     14 :     5.979495400662250   Change is   -0.000568399552679
 Root     15 :     6.072117970026811   Change is   -0.003830174335018
 Root     16 :     6.167429485073844   Change is   -0.002349957442341
 Root     17 :     6.186478256566586   Change is   -0.004296922328815
 Root     18 :     6.376016134172758   Change is   -0.006085842026831
 Root     19 :     6.389862155803051   Change is   -0.010040552659776
 Root     20 :     6.510273825089785   Change is   -0.001842389809634
 Root     21 :     6.578358096023754   Change is   -0.004822249509389
 Root     22 :     6.699780005028643   Change is   -0.002530609619763
 Root     23 :     6.714886889713653   Change is   -0.083484589636794
 Root     24 :     6.807117731698893   Change is   -0.205640368966161
 Root     25 :     6.826784382792609   Change is   -0.030558727351372
 Root     26 :     6.856275043921678   Change is   -0.008906662848768
 Root     27 :     6.914778096416558   Change is   -0.006353672495673
 Root     28 :     6.950928471189910   Change is   -0.191964793806573
 Root     29 :     7.014809463502211   Change is   -0.015762573361965
 Root     30 :     7.045886540765084   Change is   -0.047670583526376
 Iteration     5 Dimension   360 NMult   300 NNew     60
 CISAX will form    60 AO SS matrices at one time.
 NMat=    60 NSing=    60 JSym2X= 0.
 Root      1 not converged, maximum delta is    0.000211233179729
 Root      2 not converged, maximum delta is    0.000263777787791
 Root      3 not converged, maximum delta is    0.000159490814212
 Root      4 not converged, maximum delta is    0.000407925570525
 Root      5 not converged, maximum delta is    0.001390021881318
 Root      6 not converged, maximum delta is    0.000488427348852
 Root      7 not converged, maximum delta is    0.000609964832995
 Root      8 not converged, maximum delta is    0.003445326028077
 Root      9 not converged, maximum delta is    0.000224809423505
 Root     10 not converged, maximum delta is    0.000536625352137
 Root     11 not converged, maximum delta is    0.001018398940375
 Root     12 not converged, maximum delta is    0.001304639370183
 Root     13 not converged, maximum delta is    0.001999809753135
 Root     14 not converged, maximum delta is    0.000471645721406
 Root     15 not converged, maximum delta is    0.001856809327048
 Root     16 not converged, maximum delta is    0.003030014316106
 Root     17 not converged, maximum delta is    0.004121377888105
 Root     18 not converged, maximum delta is    0.002595659620613
 Root     19 not converged, maximum delta is    0.002147326145153
 Root     20 not converged, maximum delta is    0.000849423804521
 Root     21 not converged, maximum delta is    0.002531167004385
 Root     22 not converged, maximum delta is    0.094731239014421
 Root     23 not converged, maximum delta is    0.151805136109417
 Root     24 not converged, maximum delta is    0.055107985954777
 Root     25 not converged, maximum delta is    0.073577880651573
 Root     26 not converged, maximum delta is    0.011121485277893
 New state     27 was old state     28
 Root     27 not converged, maximum delta is    0.069833702919051
 New state     28 was old state     27
 Root     28 not converged, maximum delta is    0.036736260814873
 New state     29 was old state     30
 Root     29 not converged, maximum delta is    0.118098785474403
 New state     30 was old state     29
 Root     30 not converged, maximum delta is    0.050180889016073
 Excitation Energies [eV] at current iteration:
 Root      1 :     3.175173769147854   Change is   -0.000052120894975
 Root      2 :     3.981840620113346   Change is   -0.000075467431933
 Root      3 :     4.791637644122716   Change is   -0.000035354118936
 Root      4 :     4.833963699672965   Change is   -0.000138887844000
 Root      5 :     5.023710563613385   Change is   -0.000162578019804
 Root      6 :     5.218277212233022   Change is   -0.000083216320361
 Root      7 :     5.275733071156723   Change is   -0.000137170363984
 Root      8 :     5.293315474791500   Change is   -0.000757449381214
 Root      9 :     5.493991915613056   Change is   -0.000024587149905
 Root     10 :     5.583066543693264   Change is   -0.000097095354772
 Root     11 :     5.675266542742161   Change is   -0.000126634496525
 Root     12 :     5.714585216480015   Change is   -0.000152998702702
 Root     13 :     5.820817240849043   Change is   -0.000378491341524
 Root     14 :     5.979453243174552   Change is   -0.000042157487698
 Root     15 :     6.071630365578282   Change is   -0.000487604448529
 Root     16 :     6.167208393169136   Change is   -0.000221091904707
 Root     17 :     6.186118389242206   Change is   -0.000359867324380
 Root     18 :     6.374964395885431   Change is   -0.001051738287327
 Root     19 :     6.389071128342162   Change is   -0.000791027460889
 Root     20 :     6.510111643502492   Change is   -0.000162181587292
 Root     21 :     6.577802724868248   Change is   -0.000555371155506
 Root     22 :     6.697598042147122   Change is   -0.002181962881520
 Root     23 :     6.705321929842806   Change is   -0.009564959870847
 Root     24 :     6.798642449186984   Change is   -0.008475282511910
 Root     25 :     6.819107299078325   Change is   -0.007677083714285
 Root     26 :     6.853704836064605   Change is   -0.002570207857073
 Root     27 :     6.885309308082994   Change is   -0.065619163106916
 Root     28 :     6.911433153860663   Change is   -0.003344942555895
 Root     29 :     7.002538337486831   Change is   -0.043348203278253
 Root     30 :     7.013390994718888   Change is   -0.001418468783323
 Iteration     6 Dimension   420 NMult   360 NNew     60
 CISAX will form    60 AO SS matrices at one time.
 NMat=    60 NSing=    60 JSym2X= 0.
 Root      1 not converged, maximum delta is    0.000028643017400
 Root      2 not converged, maximum delta is    0.000062745799651
 Root      3 not converged, maximum delta is    0.000043629495065
 Root      4 not converged, maximum delta is    0.000058052361315
 Root      5 not converged, maximum delta is    0.000317621515379
 Root      6 not converged, maximum delta is    0.000055197800980
 Root      7 not converged, maximum delta is    0.000063169769139
 Root      8 not converged, maximum delta is    0.000770279867709
 Root      9 not converged, maximum delta is    0.000064424597927
 Root     10 not converged, maximum delta is    0.000081639338170
 Root     11 not converged, maximum delta is    0.000313578514094
 Root     12 not converged, maximum delta is    0.000207850645146
 Root     13 not converged, maximum delta is    0.000356225795325
 Root     14 not converged, maximum delta is    0.000058484912507
 Root     15 not converged, maximum delta is    0.000364301270434
 Root     16 not converged, maximum delta is    0.000206534986740
 Root     17 not converged, maximum delta is    0.000275248017401
 Root     18 not converged, maximum delta is    0.001003747540437
 Root     19 not converged, maximum delta is    0.000599575777683
 Root     20 not converged, maximum delta is    0.000176154984827
 Root     21 not converged, maximum delta is    0.000781624179032
 Root     22 not converged, maximum delta is    0.017048848008173
 Root     23 not converged, maximum delta is    0.022276834219306
 Root     24 not converged, maximum delta is    0.004621606373102
 Root     25 not converged, maximum delta is    0.009116333470997
 Root     26 not converged, maximum delta is    0.004834967383536
 Root     27 not converged, maximum delta is    0.014615142098398
 Root     28 not converged, maximum delta is    0.006643321888487
 Root     29 not converged, maximum delta is    0.015523905373018
 Root     30 not converged, maximum delta is    0.012722710392585
 Excitation Energies [eV] at current iteration:
 Root      1 :     3.175172158009698   Change is   -0.000001611138156
 Root      2 :     3.981837341175352   Change is   -0.000003278937993
 Root      3 :     4.791635942713208   Change is   -0.000001701409508
 Root      4 :     4.833958052851188   Change is   -0.000005646821776
 Root      5 :     5.023699548241141   Change is   -0.000011015372243
 Root      6 :     5.218273335625253   Change is   -0.000003876607769
 Root      7 :     5.275726606833250   Change is   -0.000006464323473
 Root      8 :     5.293251640485976   Change is   -0.000063834305524
 Root      9 :     5.493990417924657   Change is   -0.000001497688399
 Root     10 :     5.583060656726797   Change is   -0.000005886966467
 Root     11 :     5.675258373877481   Change is   -0.000008168864680
 Root     12 :     5.714574397956162   Change is   -0.000010818523853
 Root     13 :     5.820789357618957   Change is   -0.000027883230086
 Root     14 :     5.979450543017500   Change is   -0.000002700157052
 Root     15 :     6.071592206796214   Change is   -0.000038158782068
 Root     16 :     6.167193311855178   Change is   -0.000015081313957
 Root     17 :     6.186095625345374   Change is   -0.000022763896833
 Root     18 :     6.374840779827153   Change is   -0.000123616058278
 Root     19 :     6.388999533255490   Change is   -0.000071595086673
 Root     20 :     6.510098198958757   Change is   -0.000013444543736
 Root     21 :     6.577735906222907   Change is   -0.000066818645341
 Root     22 :     6.697130661048229   Change is   -0.000467381098894
 Root     23 :     6.704672082440026   Change is   -0.000649847402781
 Root     24 :     6.797540208504217   Change is   -0.001102240682767
 Root     25 :     6.817937681235865   Change is   -0.001169617842460
 Root     26 :     6.853152525797812   Change is   -0.000552310266792
 Root     27 :     6.875896408974664   Change is   -0.009412899108330
 Root     28 :     6.910651829765788   Change is   -0.000781324094875
 Root     29 :     6.996225201145278   Change is   -0.006313136341552
 Root     30 :     7.013116793910751   Change is   -0.000274200808137
 Iteration     7 Dimension   480 NMult   420 NNew     60
 CISAX will form    60 AO SS matrices at one time.
 NMat=    60 NSing=    60 JSym2X= 0.
 Root      1 not converged, maximum delta is    0.000006468101083
 Root      2 not converged, maximum delta is    0.000004630083993
 Root      3 not converged, maximum delta is    0.000011529113433
 Root      4 not converged, maximum delta is    0.000015364186271
 Root      5 not converged, maximum delta is    0.000076550463045
 Root      6 not converged, maximum delta is    0.000010262615517
 Root      7 not converged, maximum delta is    0.000019518868421
 Root      8 not converged, maximum delta is    0.000171247006907
 Root      9 not converged, maximum delta is    0.000012816165381
 Root     10 not converged, maximum delta is    0.000033838142177
 Root     11 not converged, maximum delta is    0.000067322451339
 Root     12 not converged, maximum delta is    0.000057742010528
 Root     13 not converged, maximum delta is    0.000087115243471
 Root     14 not converged, maximum delta is    0.000037277006539
 Root     15 not converged, maximum delta is    0.000093174959799
 Root     16 not converged, maximum delta is    0.000094560522582
 Root     17 not converged, maximum delta is    0.000102143644815
 Root     18 not converged, maximum delta is    0.000369064176557
 Root     19 not converged, maximum delta is    0.000284314619683
 Root     20 not converged, maximum delta is    0.000068273454801
 Root     21 not converged, maximum delta is    0.000204142024116
 Root     22 not converged, maximum delta is    0.001788812164003
 Root     23 not converged, maximum delta is    0.002150594815422
 Root     24 not converged, maximum delta is    0.001748184554234
 Root     25 not converged, maximum delta is    0.002652192149366
 Root     26 not converged, maximum delta is    0.001667071382566
 Root     27 not converged, maximum delta is    0.009050641512390
 Root     28 not converged, maximum delta is    0.001048162029729
 Root     29 not converged, maximum delta is    0.002223955728522
 Root     30 not converged, maximum delta is    0.002516217743743
 Excitation Energies [eV] at current iteration:
 Root      1 :     3.175172106228429   Change is   -0.000000051781269
 Root      2 :     3.981837240481078   Change is   -0.000000100694274
 Root      3 :     4.791635854991766   Change is   -0.000000087721442
 Root      4 :     4.833957793256765   Change is   -0.000000259594423
 Root      5 :     5.023698745338232   Change is   -0.000000802902909
 Root      6 :     5.218273171117011   Change is   -0.000000164508241
 Root      7 :     5.275726286613960   Change is   -0.000000320219290
 Root      8 :     5.293246251777680   Change is   -0.000005388708296
 Root      9 :     5.493990329288303   Change is   -0.000000088636354
 Root     10 :     5.583060293866048   Change is   -0.000000362860749
 Root     11 :     5.675257879415158   Change is   -0.000000494462324
 Root     12 :     5.714573590418113   Change is   -0.000000807538049
 Root     13 :     5.820787498138780   Change is   -0.000001859480177
 Root     14 :     5.979450337205505   Change is   -0.000000205811995
 Root     15 :     6.071589618838833   Change is   -0.000002587957381
 Root     16 :     6.167192133597780   Change is   -0.000001178257398
 Root     17 :     6.186093774626201   Change is   -0.000001850719173
 Root     18 :     6.374828938484082   Change is   -0.000011841343070
 Root     19 :     6.388990448825443   Change is   -0.000009084430047
 Root     20 :     6.510097038081176   Change is   -0.000001160877582
 Root     21 :     6.577728680626932   Change is   -0.000007225595976
 Root     22 :     6.697080500632501   Change is   -0.000050160415727
 Root     23 :     6.704612905664946   Change is   -0.000059176775079
 Root     24 :     6.797382676079145   Change is   -0.000157532425072
 Root     25 :     6.817773869333387   Change is   -0.000163811902477
 Root     26 :     6.853061188065376   Change is   -0.000091337732436
 Root     27 :     6.874306865068598   Change is   -0.001589543906067
 Root     28 :     6.910549096364032   Change is   -0.000102733401757
 Root     29 :     6.995457133970665   Change is   -0.000768067174614
 Root     30 :     7.013050059526911   Change is   -0.000066734383840
 Davidson failed to converge within maximum sub-space dimensions.
  Restart with updated initial guess:
 Iteration     1 Dimension   120 NMult   480 NNew    120
 CISAX will form   120 AO SS matrices at one time.
 NMat=   120 NSing=   120 JSym2X= 0.
 Excitation Energies [eV] at current iteration:
 Root      1 :     3.175172104598220
 Root      2 :     3.981837238560540
 Root      3 :     4.791635851266412
 Root      4 :     4.833957781798190
 Root      5 :     5.023698698659061
 Root      6 :     5.218273163955266
 Root      7 :     5.275726272028460
 Root      8 :     5.293245889548445
 Root      9 :     5.493990324252882
 Root     10 :     5.583060272465794
 Root     11 :     5.675257854586938
 Root     12 :     5.714573546230388
 Root     13 :     5.820787390446739
 Root     14 :     5.979450320048774
 Root     15 :     6.071589464105909
 Root     16 :     6.167192035822413
 Root     17 :     6.186093626079097
 Root     18 :     6.374828144450716
 Root     19 :     6.388989414340529
 Root     20 :     6.510096936491029
 Root     21 :     6.577728099305211
 Root     22 :     6.697075549760767
 Root     23 :     6.704607207691494
 Root     24 :     6.797365867692669
 Root     25 :     6.817761550391268
 Root     26 :     6.853050760756822
 Root     27 :     6.874148913585916
 Root     28 :     6.910537919405247
 Root     29 :     6.995379724961315
 Root     30 :     7.013038293529427
 Iteration     2 Dimension   180 NMult   600 NNew     60
 CISAX will form    60 AO SS matrices at one time.
 NMat=    60 NSing=    60 JSym2X= 0.
 Root      1 has converged.
 Root      2 has converged.
 Root      3 not converged, maximum delta is    0.000001011799549
 Root      4 not converged, maximum delta is    0.000001217072612
 Root      5 not converged, maximum delta is    0.000004522432463
 Root      6 not converged, maximum delta is    0.000001075409755
 Root      7 not converged, maximum delta is    0.000001814140190
 Root      8 not converged, maximum delta is    0.000024841602738
 Root      9 not converged, maximum delta is    0.000001622853777
 Root     10 not converged, maximum delta is    0.000002722535366
 Root     11 not converged, maximum delta is    0.000003291402749
 Root     12 not converged, maximum delta is    0.000003835069864
 Root     13 not converged, maximum delta is    0.000006656008084
 Root     14 not converged, maximum delta is    0.000005827243133
 Root     15 not converged, maximum delta is    0.000006641665730
 Root     16 not converged, maximum delta is    0.000017936063513
 Root     17 not converged, maximum delta is    0.000020550672119
 Root     18 not converged, maximum delta is    0.000024950761212
 Root     19 not converged, maximum delta is    0.000048787181422
 Root     20 not converged, maximum delta is    0.000017379815440
 Root     21 not converged, maximum delta is    0.000033542849881
 Root     22 not converged, maximum delta is    0.000134398259333
 Root     23 not converged, maximum delta is    0.000139182214527
 Root     24 not converged, maximum delta is    0.000150378019886
 Root     25 not converged, maximum delta is    0.000069146645849
 Root     26 not converged, maximum delta is    0.000194502644778
 Root     27 not converged, maximum delta is    0.000367987286138
 Root     28 not converged, maximum delta is    0.000247713984315
 Root     29 not converged, maximum delta is    0.000545860523374
 Root     30 not converged, maximum delta is    0.000401871148087
 Excitation Energies [eV] at current iteration:
 Root      1 :     3.175172104502812   Change is   -0.000000000095408
 Root      2 :     3.981837238424403   Change is   -0.000000000136137
 Root      3 :     4.791635850843385   Change is   -0.000000000423027
 Root      4 :     4.833957780668787   Change is   -0.000000001129402
 Root      5 :     5.023698693171151   Change is   -0.000000005487910
 Root      6 :     5.218273163285763   Change is   -0.000000000669504
 Root      7 :     5.275726270492973   Change is   -0.000000001535488
 Root      8 :     5.293245832222328   Change is   -0.000000057326118
 Root      9 :     5.493990323590268   Change is   -0.000000000662614
 Root     10 :     5.583060269675288   Change is   -0.000000002790505
 Root     11 :     5.675257851822892   Change is   -0.000000002764046
 Root     12 :     5.714573539928550   Change is   -0.000000006301837
 Root     13 :     5.820787375739829   Change is   -0.000000014706911
 Root     14 :     5.979450317306847   Change is   -0.000000002741927
 Root     15 :     6.071589441151145   Change is   -0.000000022954764
[...]
 Alpha virt. eigenvalues --    0.07105   0.07263   0.07390   0.07660   0.07766
 Alpha virt. eigenvalues --    0.08078   0.08360   0.08551   0.08791   0.08797
 Alpha virt. eigenvalues --    0.09039   0.09058   0.09496   0.09566   0.09589
 Alpha virt. eigenvalues --    0.09799   0.09858   0.10227   0.10369   0.10504
 Alpha virt. eigenvalues --    0.10643   0.10745   0.10848   0.11106   0.11361
 Alpha virt. eigenvalues --    0.11492   0.11560   0.11955   0.11980   0.12218
 Alpha virt. eigenvalues --    0.12362   0.12543   0.12734   0.12830   0.13034
 Alpha virt. eigenvalues --    0.13079   0.13534   0.13699   0.13761   0.14047
 Alpha virt. eigenvalues --    0.14231   0.14444   0.14708   0.14850   0.15030
 Alpha virt. eigenvalues --    0.15153   0.15214   0.15412   0.15563   0.15759
 Alpha virt. eigenvalues --    0.15860   0.16015   0.16359   0.16523   0.16680
 Alpha virt. eigenvalues --    0.16878   0.17164   0.17277   0.17643   0.17836
 Alpha virt. eigenvalues --    0.17969   0.18141   0.18186   0.18360   0.18688
 Alpha virt. eigenvalues --    0.18760   0.19033   0.19145   0.19256   0.19454
 Alpha virt. eigenvalues --    0.19521   0.19953   0.20307   0.20427   0.20735
 Alpha virt. eigenvalues --    0.21143   0.21308   0.21629   0.21755   0.21815
 Alpha virt. eigenvalues --    0.22117   0.22324   0.22417   0.22675   0.23023
 Alpha virt. eigenvalues --    0.23211   0.23399   0.23669   0.23966   0.24380
 Alpha virt. eigenvalues --    0.24615   0.24700   0.25060   0.25177   0.25468
 Alpha virt. eigenvalues --    0.25670   0.25888   0.25969   0.26247   0.26571
 Alpha virt. eigenvalues --    0.26745   0.26982   0.27299   0.27540   0.27724
 Alpha virt. eigenvalues --    0.27938   0.27966   0.28045   0.28276   0.28518
 Alpha virt. eigenvalues --    0.28597   0.28909   0.29157   0.29390   0.29509
 Alpha virt. eigenvalues --    0.29834   0.29855   0.30012   0.30320   0.30809
 Alpha virt. eigenvalues --    0.30946   0.31020   0.31659   0.31849   0.32002
 Alpha virt. eigenvalues --    0.32183   0.32567   0.32703   0.32995   0.33194
 Alpha virt. eigenvalues --    0.33430   0.33693   0.34321   0.34500   0.34762
 Alpha virt. eigenvalues --    0.35181   0.35480   0.35702   0.36357   0.36427
 Alpha virt. eigenvalues --    0.36683   0.36749   0.37158   0.37645   0.37883
 Alpha virt. eigenvalues --    0.37961   0.38174   0.38920   0.39301   0.39643
 Alpha virt. eigenvalues --    0.40298   0.40638   0.41022   0.41137   0.41563
 Alpha virt. eigenvalues --    0.41868   0.42228   0.42912   0.43644   0.43810
 Alpha virt. eigenvalues --    0.45176   0.45202   0.45631   0.45654   0.46293
 Alpha virt. eigenvalues --    0.46662   0.48385   0.48544   0.48689   0.49115
 Alpha virt. eigenvalues --    0.49477   0.50664   0.50871   0.52041   0.52229
 Alpha virt. eigenvalues --    0.53139   0.53203   0.53800   0.54253   0.55223
 Alpha virt. eigenvalues --    0.55344   0.55597   0.56184   0.56520   0.56613
 Alpha virt. eigenvalues --    0.57227   0.57460   0.57776   0.58121   0.58650
 Alpha virt. eigenvalues --    0.59754   0.60640   0.60913   0.61140   0.61563
 Alpha virt. eigenvalues --    0.61704   0.61837   0.62214   0.62655   0.62858
 Alpha virt. eigenvalues --    0.63131   0.63782   0.64025   0.64544   0.64778
 Alpha virt. eigenvalues --    0.64965   0.65000   0.65268   0.65545   0.65738
 Alpha virt. eigenvalues --    0.66185   0.66794   0.67018   0.67245   0.67720
 Alpha virt. eigenvalues --    0.67826   0.68004   0.68189   0.68609   0.68891
 Alpha virt. eigenvalues --    0.69073   0.69309   0.69833   0.70220   0.70381
 Alpha virt. eigenvalues --    0.70703   0.70996   0.71233   0.71371   0.71637
 Alpha virt. eigenvalues --    0.71796   0.72093   0.72170   0.72432   0.73075
 Alpha virt. eigenvalues --    0.73173   0.73438   0.73854   0.73869   0.74366
 Alpha virt. eigenvalues --    0.74443   0.75111   0.75216   0.75539   0.75872
 Alpha virt. eigenvalues --    0.76083   0.76408   0.76548   0.77012   0.77292
 Alpha virt. eigenvalues --    0.77582   0.77806   0.78343   0.78714   0.79122
 Alpha virt. eigenvalues --    0.79461   0.79724   0.79868   0.80092   0.80630
 Alpha virt. eigenvalues --    0.81505   0.81668   0.82676   0.82990   0.83253
 Alpha virt. eigenvalues --    0.84717   0.85181   0.85501   0.85763   0.86907
 Alpha virt. eigenvalues --    0.87627   0.88282   0.88478   0.89188   0.90418
 Alpha virt. eigenvalues --    0.90842   0.91040   0.91883   0.92426   0.92856
 Alpha virt. eigenvalues --    0.93337   0.93673   0.94046   0.94278   0.94744
 Alpha virt. eigenvalues --    0.95052   0.95576   0.96192   0.96784   0.97048
 Alpha virt. eigenvalues --    0.98096   0.98711   0.99441   0.99705   1.00516
 Alpha virt. eigenvalues --    1.00770   1.00982   1.01424   1.01843   1.02392
 Alpha virt. eigenvalues --    1.02774   1.02818   1.03510   1.03747   1.04321
 Alpha virt. eigenvalues --    1.04554   1.04929   1.05137   1.05376   1.05794
 Alpha virt. eigenvalues --    1.06140   1.06636   1.07005   1.07916   1.09196
 Alpha virt. eigenvalues --    1.10396   1.10641   1.11240   1.11915   1.12406
 Alpha virt. eigenvalues --    1.13183   1.13634   1.13988   1.15117   1.15488
 Alpha virt. eigenvalues --    1.15820   1.17522   1.17932   1.19141   1.19626
 Alpha virt. eigenvalues --    1.20368   1.20466   1.20578   1.21586   1.22632
 Alpha virt. eigenvalues --    1.23493   1.23748   1.25547   1.27480   1.28037
 Alpha virt. eigenvalues --    1.29067   1.29114   1.29683   1.30320   1.30937
 Alpha virt. eigenvalues --    1.31926   1.32768   1.34462   1.34919   1.35248
 Alpha virt. eigenvalues --    1.36257   1.37313   1.37428   1.37833   1.38453
 Alpha virt. eigenvalues --    1.38605   1.39348   1.41262   1.41789   1.44387
 Alpha virt. eigenvalues --    1.44411   1.45824   1.46102   1.46440   1.48761
 Alpha virt. eigenvalues --    1.48883   1.49934   1.50072   1.50758   1.51324
 Alpha virt. eigenvalues --    1.51368   1.51532   1.51768   1.52477   1.52801
 Alpha virt. eigenvalues --    1.53298   1.53682   1.54914   1.55276   1.55912
 Alpha virt. eigenvalues --    1.56389   1.57269   1.57550   1.57911   1.57972
 Alpha virt. eigenvalues --    1.58871   1.58975   1.59438   1.59739   1.59903
 Alpha virt. eigenvalues --    1.60035   1.60224   1.60600   1.60760   1.61006
 Alpha virt. eigenvalues --    1.61544   1.61689   1.61859   1.62306   1.62903
 Alpha virt. eigenvalues --    1.63514   1.64004   1.64276   1.64804   1.65008
 Alpha virt. eigenvalues --    1.65393   1.65690   1.66124   1.66731   1.67652
 Alpha virt. eigenvalues --    1.68019   1.68676   1.69319   1.69577   1.70070
 Alpha virt. eigenvalues --    1.70258   1.70604   1.70989   1.71665   1.72294
 Alpha virt. eigenvalues --    1.72384   1.73313   1.73480   1.73722   1.74323
 Alpha virt. eigenvalues --    1.74894   1.76721   1.77910   1.78049   1.78385
 Alpha virt. eigenvalues --    1.79005   1.79343   1.79569   1.79895   1.80548
 Alpha virt. eigenvalues --    1.80954   1.81142   1.81910   1.82670   1.83264
 Alpha virt. eigenvalues --    1.84220   1.84363   1.85429   1.86705   1.86915
 Alpha virt. eigenvalues --    1.87341   1.88325   1.88884   1.89205   1.90038
 Alpha virt. eigenvalues --    1.90512   1.91201   1.91394   1.91967   1.92382
 Alpha virt. eigenvalues --    1.92837   1.93407   1.94037   1.94975   1.95333
 Alpha virt. eigenvalues --    1.95828   1.96454   1.96818   1.97979   1.98400
 Alpha virt. eigenvalues --    1.98957   1.99433   2.00363   2.00611   2.01057
 Alpha virt. eigenvalues --    2.01890   2.02534   2.02998   2.03325   2.03948
 Alpha virt. eigenvalues --    2.04868   2.05379   2.06695   2.06995   2.08041
 Alpha virt. eigenvalues --    2.08407   2.08843   2.09115   2.11106   2.11544
 Alpha virt. eigenvalues --    2.12004   2.13144   2.13504   2.14750   2.15654
 Alpha virt. eigenvalues --    2.16498   2.17336   2.17679   2.18508   2.19426
 Alpha virt. eigenvalues --    2.19807   2.19936   2.21189   2.21771   2.21921
 Alpha virt. eigenvalues --    2.23030   2.24146   2.25057   2.25694   2.26427
 Alpha virt. eigenvalues --    2.26911   2.27403   2.28062   2.29252   2.29467
 Alpha virt. eigenvalues --    2.30354   2.31509   2.31968   2.33637   2.34706
 Alpha virt. eigenvalues --    2.36048   2.36899   2.37326   2.37732   2.38773
 Alpha virt. eigenvalues --    2.40378   2.40660   2.41698   2.41829   2.42696
 Alpha virt. eigenvalues --    2.45244   2.45834   2.46383   2.48574   2.49037
 Alpha virt. eigenvalues --    2.49310   2.49887   2.50444   2.51909   2.52124
 Alpha virt. eigenvalues --    2.53016   2.53194   2.53722   2.54017   2.54670
 Alpha virt. eigenvalues --    2.56184   2.56389   2.57462   2.57655   2.57766
 Alpha virt. eigenvalues --    2.58394   2.58766   2.59899   2.60787   2.60975
 Alpha virt. eigenvalues --    2.61301   2.61529   2.62772   2.62994   2.63096
 Alpha virt. eigenvalues --    2.64172   2.64575   2.64894   2.65833   2.66166
 Alpha virt. eigenvalues --    2.66808   2.67408   2.67759   2.68052   2.68654
 Alpha virt. eigenvalues --    2.69146   2.70765   2.71332   2.71404   2.71838
 Alpha virt. eigenvalues --    2.72395   2.73431   2.73507   2.74008   2.74130
 Alpha virt. eigenvalues --    2.74377   2.76577   2.77236   2.77629   2.78184
 Alpha virt. eigenvalues --    2.78364   2.79242   2.79610   2.80481   2.81290
 Alpha virt. eigenvalues --    2.82534   2.82828   2.83630   2.84143   2.84650
 Alpha virt. eigenvalues --    2.85161   2.85644   2.86179   2.86538   2.87127
 Alpha virt. eigenvalues --    2.88045   2.88298   2.89581   2.90457   2.91197
 Alpha virt. eigenvalues --    2.92080   2.92213   2.92577   2.93223   2.94196
 Alpha virt. eigenvalues --    2.94777   2.95532   2.95899   2.96869   2.96972
 Alpha virt. eigenvalues --    2.97788   2.98740   2.98845   2.99808   2.99968
 Alpha virt. eigenvalues --    3.00431   3.00794   3.01471   3.02167   3.04516
 Alpha virt. eigenvalues --    3.06989   3.08017   3.10616   3.11108   3.11538
 Alpha virt. eigenvalues --    3.12207   3.14082   3.14837   3.15760   3.16590
 Alpha virt. eigenvalues --    3.18132   3.19466   3.19993   3.21088   3.21784
 Alpha virt. eigenvalues --    3.22988   3.24601   3.25464   3.26580   3.27500
 Alpha virt. eigenvalues --    3.28099   3.30113   3.31074   3.32702   3.34419
 Alpha virt. eigenvalues --    3.34717   3.34966   3.35272   3.37321   3.38052
 Alpha virt. eigenvalues --    3.40515   3.41449   3.43073   3.44353   3.46526
 Alpha virt. eigenvalues --    3.47108   3.47619   3.51893   3.53275   3.58990
 Alpha virt. eigenvalues --    3.59659   3.61356   3.63033   3.66108   3.68304
 Alpha virt. eigenvalues --    3.71032   3.71554   3.72591   3.74596   3.75527
 Alpha virt. eigenvalues --    3.75956   3.79331   3.80628   3.82283   3.82730
 Alpha virt. eigenvalues --    3.83237   3.85190   3.85423   3.85476   3.85787
 Alpha virt. eigenvalues --    3.86094   3.86936   3.87276   3.88082   3.88358
 Alpha virt. eigenvalues --    3.88658   3.89472   3.97423   3.99504   4.00866
 Alpha virt. eigenvalues --    4.03426   4.07218   4.08244   4.12163   4.14248
 Alpha virt. eigenvalues --    4.20993   4.23005   4.23759   4.26253   4.26835
 Alpha virt. eigenvalues --    4.28380   4.30009   4.31175   4.32159   4.37448
 Alpha virt. eigenvalues --    4.37576   4.41315   4.50296   4.68691   4.86163
 Alpha virt. eigenvalues --    4.87309   4.88577   4.89315   4.90768   5.04693
 Alpha virt. eigenvalues --    5.09636   5.12908   5.14975   5.16740   5.37128
 Alpha virt. eigenvalues --    5.43502   5.45360   5.75302   6.00263   6.03318
 Alpha virt. eigenvalues --   23.62089  23.74262  23.75312  23.89739  23.90114
 Alpha virt. eigenvalues --   23.91215  23.91517  23.91788  23.92931  23.93356
 Alpha virt. eigenvalues --   23.98366  23.99923  24.00162  24.01021  24.01151
 Alpha virt. eigenvalues --   24.02575  24.03447  24.03761  24.05153  24.05767
 Alpha virt. eigenvalues --   24.06601  24.11503  24.16056  24.16468  24.16948
 Alpha virt. eigenvalues --   24.20867  24.21817  24.22517  35.68995  35.70252
 Alpha virt. eigenvalues --   49.96613  50.02318  50.09383
          Condensed to atoms (all electrons):
 Mulliken charges:
               1
     1  C   -0.011453
     2  C   -0.350481
     3  C   -0.096616
     4  C   -0.455945
     5  C   -0.065879
     6  C    0.442468
     7  O   -0.023175
     8  C    0.421310
     9  C    0.933454
    10  C    0.210156
    11  C   -0.084068
    12  C   -0.499994
    13  C   -0.355346
    14  C   -0.386361
    15  C   -0.051580
    16  C    0.342549
    17  C   -0.233778
    18  C   -0.083736
    19  C   -0.044218
    20  C   -0.518736
    21  C   -0.582127
    22  N   -0.101381
    23  C   -0.258799
    24  C   -0.420129
    25  N   -0.046316
    26  C   -0.059277
    27  C   -0.680348
    28  C   -0.662901
    29  C   -0.608246
    30  O   -0.118876
    31  O   -0.029109
    32  C   -0.019531
    33  C   -0.580432
    34  H    0.238281
    35  H    0.134776
    36  H    0.277201
    37  H    0.205996
    38  H    0.230778
    39  H    0.213237
    40  H    0.232241
    41  H    0.130401
    42  H    0.192482
    43  H    0.185740
    44  H    0.178512
    45  H    0.172224
    46  H    0.198203
    47  H    0.164550
    48  H    0.147548
    49  H    0.168110
    50  H    0.360701
    51  H    0.186655
    52  H    0.185254
    53  H    0.183115
    54  H    0.167548
    55  H    0.168304
    56  H    0.182240
    57  H    0.181235
    58  H    0.188754
    59  H    0.190920
    60  H    0.188823
    61  H    0.167732
    62  H    0.164181
    63  H    0.164392
    64  H    0.328769
 Sum of Mulliken charges =   1.00000
 Mulliken charges with hydrogens summed into heavy atoms:
               1
     1  C   -0.011453
     2  C   -0.350481
     3  C    0.141665
     4  C   -0.321169
     5  C   -0.065879
     6  C    0.442468
     7  O   -0.023175
     8  C    0.421310
     9  C    0.933454
    10  C    0.210156
    11  C    0.193133
    12  C   -0.293998
    13  C   -0.124567
    14  C   -0.173124
    15  C   -0.051580
    16  C    0.342549
    17  C   -0.001537
    18  C   -0.083736
    19  C   -0.044218
    20  C   -0.388336
    21  C   -0.025394
    22  N    0.227389
    23  C    0.111628
    24  C    0.060080
    25  N    0.314385
    26  C    0.312632
    27  C   -0.161381
    28  C   -0.110672
    29  C   -0.608246
    30  O   -0.118876
    31  O   -0.029109
    32  C    0.360212
    33  C   -0.084126
 Electronic spatial extent (au):  <R**2>=          84066.4683
 Charge=              1.0000 electrons
 Dipole moment (field-independent basis, Debye):
    X=              3.2780    Y=            -42.4094    Z=             -1.4519  Tot=             42.5607
 Quadrupole moment (field-independent basis, Debye-Ang):
   XX=           -132.4657   YY=            290.9905   ZZ=           -175.5571
   XY=            -29.3731   XZ=              9.3870   YZ=              9.1645
 Traceless Quadrupole moment (field-independent basis, Debye-Ang):
   XX=           -126.7883   YY=            296.6679   ZZ=           -169.8796
   XY=            -29.3731   XZ=              9.3870   YZ=              9.1645
 Octapole moment (field-independent basis, Debye-Ang**2):
  XXX=           -660.2082  YYY=          -1161.0316  ZZZ=             50.0191  XYY=           -116.4897
  XXY=           1176.9716  XXZ=             -6.1611  XZZ=           -200.9392  YZZ=           1557.7433
  YYZ=           -126.7442  XYZ=            -72.9375
 Hexadecapole moment (field-independent basis, Debye-Ang**3):
 XXXX=          -9306.6997 YYYY=         -15495.4666 ZZZZ=          -2978.7967 XXXY=           5724.6161
 XXXZ=          -1032.8473 YYYX=           7543.5996 YYYZ=           2086.5578 ZZZX=           -705.8660
 ZZZY=           -365.1997 XXYY=         -13756.9908 XXZZ=          -2007.1607 YYZZ=         -16273.1685
 XXYZ=             70.7279 YYXZ=            285.3626 ZZXY=           1760.7209
 N-N= 3.325374514021D+03 E-N=-9.930548840971D+03  KE= 1.413597612370D+03
 No NMR shielding tensors so no spin-rotation constants.
 Leave Link  601 at Sat May  2 00:53:52 2020, MaxMem=  6710886400 cpu:        13.3
 (Enter /opt/sys/apps/gaussian09/D.01/g09/l9999.exe)

 Test job not archived.
 1\1\GINC-S91P28\SP\RCAM-B3LYP TD-FC\6-311++G(d,p)\C28H31N2O3(1+)\SALVA
 TORE\02-May-2020\0\\#p CAM-B3LYP/6-311++G** geom=allcheck nosym TD=(NS
 TATES=30,ROOT=1) density=current iop(3/119=0810000000) iop(3/120=08100
 00000)\\R6G\\1,1\C,0,1.504605154,-12.4300179555,-0.3451912596\C,0,0.06
 26443142,-12.4261806737,-0.4396878625\C,0,-0.6238021668,-11.2037516896
 ,-0.5538086686\C,0,2.1680839317,-11.233623091,-0.3658886341\C,0,1.5016
 911997,-9.9795145573,-0.478627929\C,0,0.0864503021,-10.0202393652,-0.5
 699036454\O,0,-0.6364084647,-8.8760929841,-0.6774113187\C,0,2.15278454
 27,-8.7304537922,-0.4798808001\C,0,3.6462565459,-8.6551390388,-0.44147
 68869\C,0,4.3882957525,-8.5454919871,0.7520662759\C,0,5.7860541752,-8.
 478051627,0.6897370648\C,0,6.4483646772,-8.5177855074,-0.5318550563\C,
 0,5.7159056571,-8.6257054998,-1.7111524202\C,0,4.3252691196,-8.6938649
 623,-1.6634543883\C,0,1.3855647163,-7.5588632255,-0.6270853174\C,0,-0.
 0263965216,-7.6637324545,-0.7164109084\C,0,-0.8463980681,-6.5609768131
 ,-0.8407243543\C,0,-0.2828702672,-5.272914093,-0.8881424583\C,0,1.1520
 5673,-5.1216215921,-0.7963841883\C,0,1.9271486685,-6.2421960401,-0.670
 9272697\C,0,1.7704078344,-3.7488083771,-0.844379849\N,0,-1.0499824926,
 -4.1671860236,-1.0340667103\C,0,-2.5108621778,-4.1286625325,-1.1135698
 556\C,0,-3.2065624696,-4.1702333306,0.2498089343\N,0,-0.6049915936,-13
 .601709206,-0.4178222013\C,0,-2.0569196081,-13.7559931705,-0.501923136
 1\C,0,-2.4447718789,-15.2279673939,-0.4289759764\C,0,2.2484066466,-13.
 7342198366,-0.2260293797\C,0,3.6780877676,-8.5016289328,2.0690007769\O
 ,0,2.4721641734,-8.558863992,2.1857536117\O,0,4.5200885528,-8.39244092
 62,3.1035866628\C,0,3.9260380497,-8.3425267811,4.4338816457\C,0,5.0521
 189012,-8.1880884811,5.4327238274\H,0,-1.7010947655,-11.1640431094,-0.
 6263100799\H,0,3.2487222643,-11.2313687431,-0.2941946534\H,0,6.3446997
 557,-8.393829468,1.6119059685\H,0,7.530036077,-8.4648170321,-0.5627117
 405\H,0,6.2220391175,-8.6574475072,-2.6689976404\H,0,3.7579872308,-8.7
 779172265,-2.583431025\H,0,-1.9141841529,-6.7165038348,-0.8927235438\H
 ,0,3.0023554975,-6.1309659288,-0.6035364136\H,0,2.8552055052,-3.812170
 4576,-0.7604322173\H,0,1.5453748872,-3.2341966917,-1.7855261767\H,0,1.
 4170653999,-3.1135302817,-0.0239850881\H,0,-2.848625317,-4.9504542905,
 -1.7500125264\H,0,-2.7712581065,-3.2078126936,-1.6393695241\H,0,-4.290
 4398823,-4.1319487936,0.114990634\H,0,-2.9642341832,-5.0829368782,0.79
 85589526\H,0,-2.9119064178,-3.3165748371,0.8646139894\H,0,-0.064866382
 5,-14.4479930294,-0.3309838301\H,0,-2.4137020714,-13.3180672884,-1.441
 103718\H,0,-2.5277409169,-13.2018775702,0.3179763133\H,0,-3.5291751773
 ,-15.3306159413,-0.4929309581\H,0,-2.0075767828,-15.795653373,-1.25482
 25513\H,0,-2.1229260306,-15.6767044021,0.5146242496\H,0,1.9586321647,-
 14.2863076134,0.6753024461\H,0,2.0672642403,-14.3855499893,-1.08860451
 13\H,0,3.3230578252,-13.5615189296,-0.169584654\H,0,3.3585960244,-9.26
 25820057,4.5873266656\H,0,3.2268720269,-7.504697184,4.4635131392\H,0,4
 .6373927587,-8.1490502126,6.4430777468\H,0,5.7443250607,-9.0311147664,
 5.3812958216\H,0,5.6106002911,-7.2661119704,5.2580672783\H,0,-0.577397
 644,-3.2778320168,-1.0235506782\\Version=ES64L-G09RevD.01\HF=-1419.223
 6647\RMSD=5.510e-09\Dipole=-1.5332455,-0.0967632,-0.7954324\Quadrupole
 =-94.2639758,220.5653344,-126.3013587,-21.8381556,6.9790033,6.8135523\
 PG=C01 [X(C28H31N2O3)]\\@


 EVANS BOLDLY PUT 50 ATM. OF ETHYLENE IN A CELL WITH 25 ATM. OF OXYGEN.
 THE APPARATUS SUBSEQUENTLY BLEW UP, BUT LUCKILY NOT BEFORE HE
 OBTAINED THE SPECTRA SHOWN IN FIGURE 8.
 A.J.MERER AND R.S.MULLIKEN, CHEM.REV. 69, 645 (1969)
 Job cpu time:       4 days 23 hours 51 minutes  5.4 seconds.
 File lengths (MBytes):  RWF=   5334 Int=      0 D2E=      0 Chk=   1228 Scr=      1
 Normal termination of Gaussian 09 at Sat May  2 00:53:53 2020.
