 Entering Gaussian System, Link 0=g09
 Initial command:
 /opt/sys/apps/gaussian09/D.01/g09/l1.exe "/tmp/Gau-11578.inp" -scrdir="/tmp/"
 Entering Link 1 = /opt/sys/apps/gaussian09/D.01/g09/l1.exe PID=     11579.
  
 Copyright (c) 1988,1990,1992,1993,1995,1998,2003,2009,2013,
            Gaussian, Inc.  All Rights Reserved.
  
 This is part of the Gaussian(R) 09 program.  It is based on
 the Gaussian(R) 03 system (copyright 2003, Gaussian, Inc.),
 the Gaussian(R) 98 system (copyright 1998, Gaussian, Inc.),
 the Gaussian(R) 94 system (copyright 1995, Gaussian, Inc.),
 the Gaussian 92(TM) system (copyright 1992, Gaussian, Inc.),
 the Gaussian 90(TM) system (copyright 1990, Gaussian, Inc.),
 the Gaussian 88(TM) system (copyright 1988, Gaussian, Inc.),
 the Gaussian 86(TM) system (copyright 1986, Carnegie Mellon
 University), and the Gaussian 82(TM) system (copyright 1983,
 Carnegie Mellon University). Gaussian is a federally registered
 trademark of Gaussian, Inc.
  
 This software contains proprietary and confidential information,
 including trade secrets, belonging to Gaussian, Inc.
  
 This software is provided under written license and may be
 used, copied, transmitted, or stored only in accord with that
 written license.
  
 The following legend is applicable only to US Government
 contracts under FAR:
  
                    RESTRICTED RIGHTS LEGEND
  
 Use, reproduction and disclosure by the US Government is
 subject to restrictions as set forth in subparagraphs (a)
 and (c) of the Commercial Computer Software - Restricted
 Rights clause in FAR 52.227-19.
  
 Gaussian, Inc.
 340 Quinnipiac St., Bldg. 40, Wallingford CT 06492
  
  
 ---------------------------------------------------------------
 Warning -- This program may not be used in any manner that
 competes with the business of Gaussian, Inc. or will provide
 assistance to any competitor of Gaussian, Inc.  The licensee
 of this program is prohibited from giving any competitor of
 Gaussian, Inc. access to this program.  By using this program,
 the user acknowledges that Gaussian, Inc. is engaged in the
 business of creating and licensing software in the field of
 computational chemistry and represents and warrants to the
 licensee that it is not a competitor of Gaussian, Inc. and that
 it will not use this program in any manner prohibited above.
 ---------------------------------------------------------------
  

 Cite this work as:
 Gaussian 09, Revision D.01,
 M. J. Frisch, G. W. Trucks, H. B. Schlegel, G. E. Scuseria, 
 M. A. Robb, J. R. Cheeseman, G. Scalmani, V. Barone, B. Mennucci, 
 G. A. Petersson, H. Nakatsuji, M. Caricato, X. Li, H. P. Hratchian, 
 A. F. Izmaylov, J. Bloino, G. Zheng, J. L. Sonnenberg, M. Hada, 
 M. Ehara, K. Toyota, R. Fukuda, J. Hasegawa, M. Ishida, T. Nakajima, 
 Y. Honda, O. Kitao, H. Nakai, T. Vreven, J. A. Montgomery, Jr., 
 J. E. Peralta, F. Ogliaro, M. Bearpark, J. J. Heyd, E. Brothers, 
 K. N. Kudin, V. N. Staroverov, T. Keith, R. Kobayashi, J. Normand, 
 K. Raghavachari, A. Rendell, J. C. Burant, S. S. Iyengar, J. Tomasi, 
 M. Cossi, N. Rega, J. M. Millam, M. Klene, J. E. Knox, J. B. Cross, 
 V. Bakken, C. Adamo, J. Jaramillo, R. Gomperts, R. E. Stratmann, 
 O. Yazyev, A. J. Austin, R. Cammi, C. Pomelli, J. W. Ochterski, 
 R. L. Martin, K. Morokuma, V. G. Zakrzewski, G. A. Voth, 
 P. Salvador, J. J. Dannenberg, S. Dapprich, A. D. Daniels, 
 O. Farkas, J. B. Foresman, J. V. Ortiz, J. Cioslowski, 
 and D. J. Fox, Gaussian, Inc., Wallingford CT, 2013.
 
 ******************************************
 Gaussian 09:  ES64L-G09RevD.01 24-Apr-2013
                17-Feb-2020 
 ******************************************
 %NProcShared=24
 Will use up to   24 processors via shared memory.
 %oldChk=checkpointCPCM_eta.chk
 %Chk=checkpointCPCM_ethanolES.chk
 %mem=50Gb
 Copying data from "checkpointCPCM_eta.chk" to current chk file "checkpointCPCM_ethanolES.chk".
 ----------------------------------------------------------------------
 #p CAM-B3LYP/6-311++G** nosym density=current geom=allcheck EmpiricalD
 ispersion=GD3 SCRF=(CPCM, solvent=ethanol) IOP(10/74=10) TD=(NSTATES=1
 0,ROOT=1,NONEQ) iop(3/119=0810000000) iop(3/120=0810000000)
 ----------------------------------------------------------------------
 1/29=7,30=1,38=1/1;
 2/12=2,15=1,40=1/2;
 3/5=4,6=6,7=1111,11=9,14=-4,16=1,25=1,30=1,70=2101,71=1,72=4,74=-40,119=810000000,120=810000000,124=31/1,2,8,3;
 4//1;
 5/5=2,38=5,53=4/2;
 8/6=1,10=2,107=1,108=10/1;
 9/8=1,15=1,41=10,42=1,70=2,73=1/14;
 10/5=4,13=10,31=1,74=10/2;
 6/7=2,8=2,9=2,10=2,22=-1/1;
 99/5=1,9=1/99;
 Leave Link    1 at Mon Feb 17 09:22:56 2020, MaxMem=  6710886400 cpu:        15.5
 (Enter /opt/sys/apps/gaussian09/D.01/g09/l101.exe)
 Structure from the checkpoint file:  "checkpointCPCM_ethanolES.chk"
 ------
 cation
 ------
 Charge =  1 Multiplicity = 1
 Redundant internal coordinates found in file.
 C,0,1.7246072654,-12.4380193262,0.2969929269
 C,0,0.498836444,-12.5905128308,-0.4422809144
 C,0,-0.1856954262,-11.4049649812,-0.8154803923
 C,0,2.2234291774,-11.206024779,0.6032280611
 C,0,1.5586423585,-10.006568453,0.2151405928
 C,0,0.3336964716,-10.1738623967,-0.4941552844
 O,0,-0.395051084,-9.090642649,-0.8768283679
 C,0,2.0092852423,-8.706379923,0.5090640221
 C,0,3.2852739544,-8.5029868042,1.2508354
 C,0,3.3203305634,-8.0083726335,2.5689868771
 C,0,4.5530096159,-7.7674412501,3.186009158
 C,0,5.742997767,-8.0360750772,2.5197101761
 C,0,5.7105510222,-8.5323337394,1.2175067263
 C,0,4.4900004747,-8.7592613934,0.587843742
 C,0,1.2462964571,-7.6020358335,0.0924142024
 C,0,0.022426145,-7.8243135329,-0.601657896
 C,0,-0.7978575099,-6.8053104778,-1.0231830821
 C,0,-0.4386377996,-5.453388347,-0.7857107252
 C,0,0.8036579452,-5.2128930527,-0.0995087165
 C,0,1.601760025,-6.2401476122,0.3097216712
 N,0,-1.220814221,-4.4292482405,-1.1970598865
 C,0,-2.5173031614,-4.6763314758,-1.8522066681
 C,0,-3.6468306098,-5.0217270311,-0.8766662837
 N,0,0.0243732566,-13.814896525,-0.7671872883
 C,0,-1.2507003521,-13.9715022179,-1.4887529293
 C,0,-2.4871769742,-13.8635838358,-0.590619579
 C,0,2.0940303769,-7.6888499447,3.3720495442
 H,0,-1.1262252483,-11.4258662816,-1.3430655089
 H,0,3.1481186981,-11.1342924626,1.1609610956
 H,0,4.5639575235,-7.3780072242,4.1961915758
 H,0,6.690399615,-7.8568832365,3.0132602111
 H,0,6.6329837468,-8.7370893047,0.6874589941
 H,0,4.4641534989,-9.1223424451,-0.4325236484
 H,0,-1.7115062517,-7.0773467831,-1.5277971269
 H,0,2.5325570584,-6.0152936788,0.8138311155
 H,0,-2.392910912,-5.4661815251,-2.5958185447
 H,0,-2.7692763354,-3.7735633315,-2.4080386407
 H,0,-4.5606349842,-5.2346797239,-1.4369140967
 H,0,-3.4019513679,-5.8998591789,-0.275678701
 H,0,-3.8477067856,-4.1899024668,-0.1994720459
 H,0,-1.2247285964,-14.9489489493,-1.9699595803
 H,0,-1.292193302,-13.2366582841,-2.2949643252
 H,0,-3.3900227069,-13.9453774936,-1.200881632
 H,0,-2.5031442934,-14.6633281426,0.151451393
 H,0,-2.5163161336,-12.9077607385,-0.0634603794
 C,0,-0.8729771409,-3.0255854599,-0.9081661645
 C,0,-1.2281209883,-2.5806093968,0.513500839
 H,0,-1.4078544197,-2.413565776,-1.6338733181
 H,0,0.1888884094,-2.87338412,-1.1081484023
 H,0,-2.3043089595,-2.6366409091,0.6853984442
 H,0,-0.9119493288,-1.5450022544,0.6615309964
 H,0,-0.7297204546,-3.2002914116,1.2620016014
 C,0,0.6940563037,-15.0491952991,-0.3163412549
 C,0,0.3784299444,-15.4289093331,1.1331977668
 H,0,-0.6854988474,-15.6339354901,1.2622517199
 H,0,0.6588529257,-14.6314462048,1.8245035778
 H,0,0.9355621753,-16.3290441214,1.4047133612
 H,0,1.7701192736,-14.9457734685,-0.4647365436
 H,0,0.3713137825,-15.8447426743,-0.9874029129
 H,0,1.1246193125,-4.2030191866,0.1027447078
 H,0,2.2705923917,-13.3078797724,0.6270240504
 O,0,2.0182446352,-6.7190558178,4.0887408158
 O,0,1.0435733925,-8.5362838221,3.3023414234
 H,0,1.2432769452,-9.3299398676,2.7862740506
 Recover connectivity data from disk.
 NAtoms=     64 NQM=       64 NQMF=       0 NMMI=      0 NMMIF=      0
                NMic=       0 NMicF=      0.
                    Isotopes and Nuclear Properties:
 (Nuclear quadrupole moments (NQMom) in fm**2, nuclear magnetic moments (NMagM)
  in nuclear magnetons)

  Atom         1           2           3           4           5           6           7           8           9          10
 IAtWgt=          12          12          12          12          12          12          16          12          12          12
 AtmWgt=  12.0000000  12.0000000  12.0000000  12.0000000  12.0000000  12.0000000  15.9949146  12.0000000  12.0000000  12.0000000
 NucSpn=           0           0           0           0           0           0           0           0           0           0
 AtZEff=  -3.6000000  -3.6000000  -3.6000000  -3.6000000  -3.6000000  -3.6000000  -5.6000000  -3.6000000  -3.6000000  -3.6000000
 NQMom=    0.0000000   0.0000000   0.0000000   0.0000000   0.0000000   0.0000000   0.0000000   0.0000000   0.0000000   0.0000000
 NMagM=    0.0000000   0.0000000   0.0000000   0.0000000   0.0000000   0.0000000   0.0000000   0.0000000   0.0000000   0.0000000
 AtZNuc=   6.0000000   6.0000000   6.0000000   6.0000000   6.0000000   6.0000000   8.0000000   6.0000000   6.0000000   6.0000000

  Atom        11          12          13          14          15          16          17          18          19          20
 IAtWgt=          12          12          12          12          12          12          12          12          12          12
 AtmWgt=  12.0000000  12.0000000  12.0000000  12.0000000  12.0000000  12.0000000  12.0000000  12.0000000  12.0000000  12.0000000
 NucSpn=           0           0           0           0           0           0           0           0           0           0
 AtZEff=  -3.6000000  -3.6000000  -3.6000000  -3.6000000  -3.6000000  -3.6000000  -3.6000000  -3.6000000  -3.6000000  -3.6000000
 NQMom=    0.0000000   0.0000000   0.0000000   0.0000000   0.0000000   0.0000000   0.0000000   0.0000000   0.0000000   0.0000000
 NMagM=    0.0000000   0.0000000   0.0000000   0.0000000   0.0000000   0.0000000   0.0000000   0.0000000   0.0000000   0.0000000
 AtZNuc=   6.0000000   6.0000000   6.0000000   6.0000000   6.0000000   6.0000000   6.0000000   6.0000000   6.0000000   6.0000000

  Atom        21          22          23          24          25          26          27          28          29          30
 IAtWgt=          14          12          12          14          12          12          12           1           1           1
 AtmWgt=  14.0030740  12.0000000  12.0000000  14.0030740  12.0000000  12.0000000  12.0000000   1.0078250   1.0078250   1.0078250
 NucSpn=           2           0           0           2           0           0           0           1           1           1
 AtZEff=  -4.5500000  -3.6000000  -3.6000000  -4.5500000  -3.6000000  -3.6000000  -3.6000000  -1.0000000  -1.0000000  -1.0000000
 NQMom=    2.0440000   0.0000000   0.0000000   2.0440000   0.0000000   0.0000000   0.0000000   0.0000000   0.0000000   0.0000000
 NMagM=    0.4037610   0.0000000   0.0000000   0.4037610   0.0000000   0.0000000   0.0000000   2.7928460   2.7928460   2.7928460
 AtZNuc=   7.0000000   6.0000000   6.0000000   7.0000000   6.0000000   6.0000000   6.0000000   1.0000000   1.0000000   1.0000000

  Atom        31          32          33          34          35          36          37          38          39          40
 IAtWgt=           1           1           1           1           1           1           1           1           1           1
 AtmWgt=   1.0078250   1.0078250   1.0078250   1.0078250   1.0078250   1.0078250   1.0078250   1.0078250   1.0078250   1.0078250
 NucSpn=           1           1           1           1           1           1           1           1           1           1
 AtZEff=  -1.0000000  -1.0000000  -1.0000000  -1.0000000  -1.0000000  -1.0000000  -1.0000000  -1.0000000  -1.0000000  -1.0000000
 NQMom=    0.0000000   0.0000000   0.0000000   0.0000000   0.0000000   0.0000000   0.0000000   0.0000000   0.0000000   0.0000000
 NMagM=    2.7928460   2.7928460   2.7928460   2.7928460   2.7928460   2.7928460   2.7928460   2.7928460   2.7928460   2.7928460
 AtZNuc=   1.0000000   1.0000000   1.0000000   1.0000000   1.0000000   1.0000000   1.0000000   1.0000000   1.0000000   1.0000000

  Atom        41          42          43          44          45          46          47          48          49          50
 IAtWgt=           1           1           1           1           1          12          12           1           1           1
 AtmWgt=   1.0078250   1.0078250   1.0078250   1.0078250   1.0078250  12.0000000  12.0000000   1.0078250   1.0078250   1.0078250
 NucSpn=           1           1           1           1           1           0           0           1           1           1
 AtZEff=  -1.0000000  -1.0000000  -1.0000000  -1.0000000  -1.0000000  -3.6000000  -3.6000000  -1.0000000  -1.0000000  -1.0000000
 NQMom=    0.0000000   0.0000000   0.0000000   0.0000000   0.0000000   0.0000000   0.0000000   0.0000000   0.0000000   0.0000000
 NMagM=    2.7928460   2.7928460   2.7928460   2.7928460   2.7928460   0.0000000   0.0000000   2.7928460   2.7928460   2.7928460
 AtZNuc=   1.0000000   1.0000000   1.0000000   1.0000000   1.0000000   6.0000000   6.0000000   1.0000000   1.0000000   1.0000000

  Atom        51          52          53          54          55          56          57          58          59          60
 IAtWgt=           1           1          12          12           1           1           1           1           1           1
 AtmWgt=   1.0078250   1.0078250  12.0000000  12.0000000   1.0078250   1.0078250   1.0078250   1.0078250   1.0078250   1.0078250
 NucSpn=           1           1           0           0           1           1           1           1           1           1
 AtZEff=  -1.0000000  -1.0000000  -3.6000000  -3.6000000  -1.0000000  -1.0000000  -1.0000000  -1.0000000  -1.0000000  -1.0000000
 NQMom=    0.0000000   0.0000000   0.0000000   0.0000000   0.0000000   0.0000000   0.0000000   0.0000000   0.0000000   0.0000000
 NMagM=    2.7928460   2.7928460   0.0000000   0.0000000   2.7928460   2.7928460   2.7928460   2.7928460   2.7928460   2.7928460
 AtZNuc=   1.0000000   1.0000000   6.0000000   6.0000000   1.0000000   1.0000000   1.0000000   1.0000000   1.0000000   1.0000000

  Atom        61          62          63          64
 IAtWgt=           1          16          16           1
 AtmWgt=   1.0078250  15.9949146  15.9949146   1.0078250
 NucSpn=           1           0           0           1
 AtZEff=  -1.0000000  -5.6000000  -5.6000000  -1.0000000
 NQMom=    0.0000000   0.0000000   0.0000000   0.0000000
 NMagM=    2.7928460   0.0000000   0.0000000   2.7928460
 AtZNuc=   1.0000000   8.0000000   8.0000000   1.0000000
 Leave Link  101 at Mon Feb 17 09:22:57 2020, MaxMem=  6710886400 cpu:         7.9
 (Enter /opt/sys/apps/gaussian09/D.01/g09/l202.exe)
 Symmetry turned off by external request.
 Stoichiometry    C28H31N2O3(1+)
 Framework group  C1[X(C28H31N2O3)]
 Deg. of freedom   186
 Full point group                 C1      NOp   1
                          Input orientation:                          
 ---------------------------------------------------------------------
 Center     Atomic      Atomic             Coordinates (Angstroms)
 Number     Number       Type             X           Y           Z
 ---------------------------------------------------------------------
      1          6           0        1.724607  -12.438019    0.296993
      2          6           0        0.498836  -12.590513   -0.442281
      3          6           0       -0.185695  -11.404965   -0.815480
      4          6           0        2.223429  -11.206025    0.603228
      5          6           0        1.558642  -10.006568    0.215141
      6          6           0        0.333696  -10.173862   -0.494155
      7          8           0       -0.395051   -9.090643   -0.876828
      8          6           0        2.009285   -8.706380    0.509064
      9          6           0        3.285274   -8.502987    1.250835
     10          6           0        3.320331   -8.008373    2.568987
     11          6           0        4.553010   -7.767441    3.186009
     12          6           0        5.742998   -8.036075    2.519710
     13          6           0        5.710551   -8.532334    1.217507
     14          6           0        4.490000   -8.759261    0.587844
     15          6           0        1.246296   -7.602036    0.092414
     16          6           0        0.022426   -7.824314   -0.601658
     17          6           0       -0.797858   -6.805310   -1.023183
     18          6           0       -0.438638   -5.453388   -0.785711
     19          6           0        0.803658   -5.212893   -0.099509
     20          6           0        1.601760   -6.240148    0.309722
     21          7           0       -1.220814   -4.429248   -1.197060
     22          6           0       -2.517303   -4.676331   -1.852207
     23          6           0       -3.646831   -5.021727   -0.876666
     24          7           0        0.024373  -13.814897   -0.767187
     25          6           0       -1.250700  -13.971502   -1.488753
     26          6           0       -2.487177  -13.863584   -0.590620
     27          6           0        2.094030   -7.688850    3.372050
     28          1           0       -1.126225  -11.425866   -1.343066
     29          1           0        3.148119  -11.134292    1.160961
     30          1           0        4.563958   -7.378007    4.196192
     31          1           0        6.690400   -7.856883    3.013260
     32          1           0        6.632984   -8.737089    0.687459
     33          1           0        4.464153   -9.122342   -0.432524
     34          1           0       -1.711506   -7.077347   -1.527797
     35          1           0        2.532557   -6.015294    0.813831
     36          1           0       -2.392911   -5.466182   -2.595819
     37          1           0       -2.769276   -3.773563   -2.408039
     38          1           0       -4.560635   -5.234680   -1.436914
     39          1           0       -3.401951   -5.899859   -0.275679
     40          1           0       -3.847707   -4.189902   -0.199472
     41          1           0       -1.224729  -14.948949   -1.969960
     42          1           0       -1.292193  -13.236658   -2.294964
     43          1           0       -3.390023  -13.945377   -1.200882
     44          1           0       -2.503144  -14.663328    0.151451
     45          1           0       -2.516316  -12.907761   -0.063460
     46          6           0       -0.872977   -3.025585   -0.908166
     47          6           0       -1.228121   -2.580609    0.513501
     48          1           0       -1.407854   -2.413566   -1.633873
     49          1           0        0.188888   -2.873384   -1.108148
     50          1           0       -2.304309   -2.636641    0.685398
     51          1           0       -0.911949   -1.545002    0.661531
     52          1           0       -0.729720   -3.200291    1.262002
     53          6           0        0.694056  -15.049195   -0.316341
     54          6           0        0.378430  -15.428909    1.133198
     55          1           0       -0.685499  -15.633935    1.262252
     56          1           0        0.658853  -14.631446    1.824504
     57          1           0        0.935562  -16.329044    1.404713
     58          1           0        1.770119  -14.945773   -0.464737
     59          1           0        0.371314  -15.844743   -0.987403
     60          1           0        1.124619   -4.203019    0.102745
     61          1           0        2.270592  -13.307880    0.627024
     62          8           0        2.018245   -6.719056    4.088741
     63          8           0        1.043573   -8.536284    3.302341
     64          1           0        1.243277   -9.329940    2.786274
 ---------------------------------------------------------------------
 Rotational constants (GHZ):      0.1514127      0.0874824      0.0618963
 Leave Link  202 at Mon Feb 17 09:22:57 2020, MaxMem=  6710886400 cpu:         0.2
 (Enter /opt/sys/apps/gaussian09/D.01/g09/l301.exe)
 Standard basis: 6-311++G(d,p) (5D, 7F)
 Ernie: Thresh=  0.10000D-02 Tol=  0.10000D-05 Strict=F.
   943 basis functions,  1467 primitive gaussians,   976 cartesian basis functions
   118 alpha electrons      118 beta electrons
       nuclear repulsion energy      3336.6559588031 Hartrees.
 IExCor=20419 DFT=T Ex+Corr=CAM-B3LYP ExCW=0 ScaHFX=  1.000000
 ScaDFX=  1.000000  1.000000  1.000000  0.810000 ScalE2=  1.000000  1.000000
 IRadAn=      0 IRanWt=     -1 IRanGd=            0 ICorTp=0 IEmpDi=131
  HFx wShort=  0.000000 wLong=  0.330000 cFull=  0.190000 cShort=  0.000000 cLong=  0.810000
  DFx wShort=  0.000000 wLong=  0.330000 cFull=  0.190000 cShort=  0.000000 cLong=  0.810000
 NAtoms=   64 NActive=   64 NUniq=   64 SFac= 1.00D+00 NAtFMM=   60 NAOKFM=T Big=T
 Integral buffers will be    131072 words long.
 Raffenetti 1 integral format.
 Two-electron integral symmetry is turned off.
 R6Disp:  Grimme-D3 Dispersion energy=       -0.0509372514 Hartrees.
 Nuclear repulsion after empirical dispersion term =     3336.6050215517 Hartrees.
 ------------------------------------------------------------------------------
 Polarizable Continuum Model (PCM)
 =================================
 Model                : C-PCM.
 Atomic radii         : UFF (Universal Force Field).
 Polarization charges : Total charges.
 Charge compensation  : None.
 Solution method      : On-the-fly selection.
 Cavity type          : Scaled VdW (van der Waals Surface) (Alpha=1.100).
 Cavity algorithm     : GePol (No added spheres)
                        Default sphere list used, NSphG=   64.
                        Lebedev-Laikov grids with approx.  5.0 points / Ang**2.
                        Smoothing algorithm: Karplus/York (Gamma=1.0000).
                        Polarization charges: spherical gaussians, with
                                              point-specific exponents (IZeta= 3).
                        Self-potential: point-specific (ISelfS= 7).
                        Self-field    : sphere-specific E.n sum rule (ISelfD= 2).
 1st derivatives      : Analytical E(r).r(x)/FMM algorithm (CHGder, D1EAlg=3).
                        Cavity 1st derivative terms included.
 Solvent              : Ethanol, Eps=  24.852000 Eps(inf)=   1.852593
 ------------------------------------------------------------------------------
 GePol: Number of generator spheres                  =      64
 GePol: Total number of spheres                      =      64
 GePol: Number of exposed spheres                    =      64 (100.00%)
 GePol: Number of points                             =    4224
 GePol: Average weight of points                     =       0.13
 GePol: Minimum weight of points                     =   0.29D-10
 GePol: Maximum weight of points                     =    0.20577
 GePol: Number of points with low weight             =     298
 GePol: Fraction of low-weight points (<1% of avg)   =       7.05%
 GePol: Cavity surface area                          =    542.844 Ang**2
 GePol: Cavity volume                                =    626.829 Ang**3
 Leave Link  301 at Mon Feb 17 09:22:57 2020, MaxMem=  6710886400 cpu:         2.5
 (Enter /opt/sys/apps/gaussian09/D.01/g09/l302.exe)
 NPDir=0 NMtPBC=     1 NCelOv=     1 NCel=       1 NClECP=     1 NCelD=      1
         NCelK=      1 NCelE2=     1 NClLst=     1 CellRange=     0.0.
 One-electron integrals computed using PRISM.
 NBasis=   943 RedAO= T EigKep=  1.17D-06  NBF=   943
 NBsUse=   929 1.00D-06 EigRej=  8.32D-07 NBFU=   929
 Precomputing XC quadrature grid using
 IXCGrd= 4 IRadAn=           0 IRanWt=          -1 IRanGd=           0 AccXCQ= 0.00D+00.
 Generated NRdTot=       0 NPtTot=           0 NUsed=           0 NTot=          32
 NSgBfM=   930   930   932   932   932 MxSgAt=    64 MxSgA2=    64.
 Leave Link  302 at Mon Feb 17 09:23:00 2020, MaxMem=  6710886400 cpu:        58.7
 (Enter /opt/sys/apps/gaussian09/D.01/g09/l308.exe)
 Leave Link  308 at Mon Feb 17 09:23:01 2020, MaxMem=  6710886400 cpu:         5.7
 (Enter /opt/sys/apps/gaussian09/D.01/g09/l303.exe)
 DipDrv:  MaxL=1.
 Leave Link  303 at Mon Feb 17 09:23:01 2020, MaxMem=  6710886400 cpu:         4.3
 (Enter /opt/sys/apps/gaussian09/D.01/g09/l401.exe)
 ExpMin= 3.60D-02 ExpMax= 8.59D+03 ExpMxC= 1.30D+03 IAcc=3 IRadAn=         5 AccDes= 0.00D+00
 Harris functional with IExCor=20419 and IRadAn=       5 diagonalized for initial guess.
 HarFok:  IExCor=20419 AccDes= 0.00D+00 IRadAn=         5 IDoV= 1 UseB2=F ITyADJ=14
 ICtDFT=  3500011 ScaDFX=  1.000000  1.000000  1.000000  1.000000
 FoFCou: FMM=F IPFlag=           0 FMFlag=      100000 FMFlg1=        2001
         NFxFlg=           0 DoJE=T BraDBF=F KetDBF=T FulRan=T
         wScrn=  0.000000 ICntrl=     500 IOpCl=  0 I1Cent=   200000004 NGrid=           0
         NMat0=    1 NMatS0=      1 NMatT0=    0 NMatD0=    1 NMtDS0=    0 NMtDT0=    0
 Symmetry not used in FoFCou.
 Harris En= -1349.46907204641    
 JPrj=0 DoOrth=F DoCkMO=F.
 Leave Link  401 at Mon Feb 17 09:23:10 2020, MaxMem=  6710886400 cpu:       170.7
 (Enter /opt/sys/apps/gaussian09/D.01/g09/l502.exe)
 Closed shell SCF:
 Using DIIS extrapolation, IDIIS=  1040.
 Two-electron integral symmetry not used.
 IVT=     2905686 IEndB=     2905686 NGot=  6710886400 MDV=  6708950907
 LenX=  6708950907 LenY=  6707997355
 Requested convergence on RMS density matrix=1.00D-08 within 128 cycles.
 Requested convergence on MAX density matrix=1.00D-06.
 Requested convergence on             energy=1.00D-06.
 No special actions if energy rises.
 Fock matrices will be formed incrementally for  20 cycles.

 Cycle   1  Pass 1  IDiag  1:
 FoFJK:  IHMeth= 1 ICntrl=       0 DoSepK=T KAlg= 0 I1Cent=   0 FoldK=F
 IRaf=         1 NMat=   1 IRICut=       1 DoRegI=T DoRafI=F ISym2E= 0.
 FoFCou: FMM=T IPFlag=           0 FMFlag=      100000 FMFlg1=        2001
         NFxFlg=           0 DoJE=T BraDBF=F KetDBF=F FulRan=T
         wScrn=  0.000000 ICntrl=     500 IOpCl=  0 I1Cent=           0 NGrid=           0
         NMat0=    1 NMatS0=      1 NMatT0=    0 NMatD0=    1 NMtDS0=    0 NMtDT0=    0
 Symmetry not used in FoFCou.
 FMM levels:  10  Number of levels for PrismC:   9
 Inv3:  Mode=1 IEnd=    53526528.
 Iteration    1 A*A^-1 deviation from unit magnitude is 6.66D-15 for   4181.
 Iteration    1 A*A^-1 deviation from orthogonality  is 2.33D-15 for   4224   4104.
 Iteration    1 A^-1*A deviation from unit magnitude is 6.55D-15 for   4219.
 Iteration    1 A^-1*A deviation from orthogonality  is 1.90D-15 for   3107   1343.
 E= -1418.74085522997    
 DIIS: error= 6.68D-02 at cycle   1 NSaved=   1.
 NSaved= 1 IEnMin= 1 EnMin= -1418.74085522997     IErMin= 1 ErrMin= 6.68D-02
 ErrMax= 6.68D-02  0.00D+00 EMaxC= 1.00D-01 BMatC= 2.57D+00 BMatP= 2.57D+00
 IDIUse=3 WtCom= 3.32D-01 WtEn= 6.68D-01
 Coeff-Com:  0.100D+01
 Coeff-En:   0.100D+01
 Coeff:      0.100D+01
 Gap=     0.292 Goal=   None    Shift=    0.000
 GapD=    0.292 DampG=1.000 DampE=0.500 DampFc=0.5000 IDamp=-1.
 Damping current iteration by 5.00D-01
 RMSDP=7.33D-03 MaxDP=5.71D-01              OVMax= 1.67D-01

 Cycle   2  Pass 1  IDiag  1:
 RMSU=  3.64D-03    CP:  1.01D+00
 E= -1419.00909741960     Delta-E=       -0.268242189632 Rises=F Damp=T
 DIIS: error= 2.95D-02 at cycle   2 NSaved=   2.
 NSaved= 2 IEnMin= 2 EnMin= -1419.00909741960     IErMin= 2 ErrMin= 2.95D-02
 ErrMax= 2.95D-02  0.00D+00 EMaxC= 1.00D-01 BMatC= 5.08D-01 BMatP= 2.57D+00
 IDIUse=3 WtCom= 7.05D-01 WtEn= 2.95D-01
 Coeff-Com: -0.515D+00 0.152D+01
 Coeff-En:   0.000D+00 0.100D+01
 Coeff:     -0.363D+00 0.136D+01
 Gap=     0.248 Goal=   None    Shift=    0.000
 RMSDP=4.82D-03 MaxDP=4.78D-01 DE=-2.68D-01 OVMax= 1.25D-01

 Cycle   3  Pass 1  IDiag  1:
 RMSU=  4.22D-03    CP:  1.01D+00  1.64D+00
 E= -1419.22641200600     Delta-E=       -0.217314586400 Rises=F Damp=F
 DIIS: error= 1.09D-02 at cycle   3 NSaved=   3.
 NSaved= 3 IEnMin= 3 EnMin= -1419.22641200600     IErMin= 3 ErrMin= 1.09D-02
 ErrMax= 1.09D-02  0.00D+00 EMaxC= 1.00D-01 BMatC= 9.47D-02 BMatP= 5.08D-01
 IDIUse=3 WtCom= 8.91D-01 WtEn= 1.09D-01
 Coeff-Com: -0.287D+00 0.626D+00 0.661D+00
 Coeff-En:   0.000D+00 0.000D+00 0.100D+01
 Coeff:     -0.255D+00 0.558D+00 0.698D+00
 Gap=     0.243 Goal=   None    Shift=    0.000
 RMSDP=2.03D-03 MaxDP=2.98D-01 DE=-2.17D-01 OVMax= 4.93D-02

 Cycle   4  Pass 1  IDiag  1:
 RMSU=  1.06D-03    CP:  9.56D-01  1.71D+00  7.94D-01
 E= -1419.29261003697     Delta-E=       -0.066198030971 Rises=F Damp=F
 DIIS: error= 2.72D-03 at cycle   4 NSaved=   4.
 NSaved= 4 IEnMin= 4 EnMin= -1419.29261003697     IErMin= 4 ErrMin= 2.72D-03
 ErrMax= 2.72D-03  0.00D+00 EMaxC= 1.00D-01 BMatC= 5.90D-03 BMatP= 9.47D-02
 IDIUse=3 WtCom= 9.73D-01 WtEn= 2.72D-02
 Coeff-Com: -0.969D-01 0.208D+00 0.328D+00 0.561D+00
 Coeff-En:   0.000D+00 0.000D+00 0.000D+00 0.100D+01
 Coeff:     -0.943D-01 0.202D+00 0.319D+00 0.573D+00
 Gap=     0.237 Goal=   None    Shift=    0.000
 RMSDP=5.03D-04 MaxDP=6.45D-02 DE=-6.62D-02 OVMax= 9.31D-03

 Cycle   5  Pass 1  IDiag  1:
 RMSU=  2.42D-04    CP:  9.64D-01  1.74D+00  8.60D-01  8.08D-01
 E= -1419.29678654879     Delta-E=       -0.004176511827 Rises=F Damp=F
 DIIS: error= 5.29D-04 at cycle   5 NSaved=   5.
 NSaved= 5 IEnMin= 5 EnMin= -1419.29678654879     IErMin= 5 ErrMin= 5.29D-04
 ErrMax= 5.29D-04  0.00D+00 EMaxC= 1.00D-01 BMatC= 9.14D-05 BMatP= 5.90D-03
 IDIUse=3 WtCom= 9.95D-01 WtEn= 5.29D-03
 Coeff-Com:  0.228D-01-0.504D-01-0.352D-01 0.360D-01 0.103D+01
 Coeff-En:   0.000D+00 0.000D+00 0.000D+00 0.000D+00 0.100D+01
 Coeff:      0.227D-01-0.501D-01-0.350D-01 0.358D-01 0.103D+01
 Gap=     0.240 Goal=   None    Shift=    0.000
 RMSDP=2.97D-04 MaxDP=6.11D-02 DE=-4.18D-03 OVMax= 6.00D-03

 Cycle   6  Pass 1  IDiag  1:
 RMSU=  9.10D-05    CP:  9.57D-01  1.74D+00  8.91D-01  9.43D-01  1.29D+00
 E= -1419.29700266117     Delta-E=       -0.000216112376 Rises=F Damp=F
 DIIS: error= 1.53D-04 at cycle   6 NSaved=   6.
 NSaved= 6 IEnMin= 6 EnMin= -1419.29700266117     IErMin= 6 ErrMin= 1.53D-04
 ErrMax= 1.53D-04  0.00D+00 EMaxC= 1.00D-01 BMatC= 2.64D-05 BMatP= 9.14D-05
 IDIUse=3 WtCom= 9.98D-01 WtEn= 1.53D-03
 Coeff-Com:  0.175D-01-0.380D-01-0.437D-01-0.485D-01 0.401D+00 0.712D+00
 Coeff-En:   0.000D+00 0.000D+00 0.000D+00 0.000D+00 0.000D+00 0.100D+01
 Coeff:      0.175D-01-0.379D-01-0.436D-01-0.484D-01 0.400D+00 0.712D+00
 Gap=     0.240 Goal=   None    Shift=    0.000
 RMSDP=5.02D-05 MaxDP=5.51D-03 DE=-2.16D-04 OVMax= 1.93D-03

 Cycle   7  Pass 1  IDiag  1:
 RMSU=  3.60D-05    CP:  9.57D-01  1.74D+00  8.93D-01  9.54D-01  1.38D+00
                    CP:  9.44D-01
 E= -1419.29704053361     Delta-E=       -0.000037872434 Rises=F Damp=F
 DIIS: error= 1.14D-04 at cycle   7 NSaved=   7.
 NSaved= 7 IEnMin= 7 EnMin= -1419.29704053361     IErMin= 7 ErrMin= 1.14D-04
 ErrMax= 1.14D-04  0.00D+00 EMaxC= 1.00D-01 BMatC= 3.02D-06 BMatP= 2.64D-05
 IDIUse=3 WtCom= 9.99D-01 WtEn= 1.14D-03
 Coeff-Com:  0.124D-02-0.248D-02-0.652D-02-0.222D-01-0.441D-01 0.202D+00
 Coeff-Com:  0.872D+00
 Coeff-En:   0.000D+00 0.000D+00 0.000D+00 0.000D+00 0.000D+00 0.000D+00
 Coeff-En:   0.100D+01
 Coeff:      0.124D-02-0.248D-02-0.651D-02-0.222D-01-0.441D-01 0.202D+00
 Coeff:      0.872D+00
 Gap=     0.241 Goal=   None    Shift=    0.000
 RMSDP=1.99D-05 MaxDP=1.67D-03 DE=-3.79D-05 OVMax= 1.49D-03

 Cycle   8  Pass 1  IDiag  1:
 RMSU=  1.57D-05    CP:  9.57D-01  1.74D+00  8.93D-01  9.59D-01  1.41D+00
                    CP:  1.04D+00  1.04D+00
 E= -1419.29704780382     Delta-E=       -0.000007270211 Rises=F Damp=F
 DIIS: error= 3.53D-05 at cycle   8 NSaved=   8.
 NSaved= 8 IEnMin= 8 EnMin= -1419.29704780382     IErMin= 8 ErrMin= 3.53D-05
 ErrMax= 3.53D-05  0.00D+00 EMaxC= 1.00D-01 BMatC= 6.86D-07 BMatP= 3.02D-06
 IDIUse=1 WtCom= 1.00D+00 WtEn= 0.00D+00
 Coeff-Com: -0.292D-02 0.638D-02 0.625D-02-0.293D-04-0.848D-01-0.566D-01
 Coeff-Com:  0.317D+00 0.815D+00
 Coeff:     -0.292D-02 0.638D-02 0.625D-02-0.293D-04-0.848D-01-0.566D-01
 Coeff:      0.317D+00 0.815D+00
 Gap=     0.241 Goal=   None    Shift=    0.000
 RMSDP=1.12D-05 MaxDP=1.16D-03 DE=-7.27D-06 OVMax= 6.03D-04

 Cycle   9  Pass 1  IDiag  1:
 RMSU=  5.48D-06    CP:  9.57D-01  1.74D+00  8.93D-01  9.58D-01  1.40D+00
                    CP:  1.06D+00  1.23D+00  1.22D+00
 E= -1419.29704919240     Delta-E=       -0.000001388586 Rises=F Damp=F
 DIIS: error= 1.19D-05 at cycle   9 NSaved=   9.
 NSaved= 9 IEnMin= 9 EnMin= -1419.29704919240     IErMin= 9 ErrMin= 1.19D-05
 ErrMax= 1.19D-05  0.00D+00 EMaxC= 1.00D-01 BMatC= 9.59D-08 BMatP= 6.86D-07
 IDIUse=1 WtCom= 1.00D+00 WtEn= 0.00D+00
 Coeff-Com: -0.960D-03 0.206D-02 0.272D-02 0.263D-02-0.162D-01-0.538D-01
 Coeff-Com: -0.451D-01 0.242D+00 0.867D+00
 Coeff:     -0.960D-03 0.206D-02 0.272D-02 0.263D-02-0.162D-01-0.538D-01
 Coeff:     -0.451D-01 0.242D+00 0.867D+00
 Gap=     0.241 Goal=   None    Shift=    0.000
 RMSDP=7.60D-06 MaxDP=1.43D-03 DE=-1.39D-06 OVMax= 2.62D-04

 Cycle  10  Pass 1  IDiag  1:
 RMSU=  2.55D-06    CP:  9.57D-01  1.74D+00  8.92D-01  9.56D-01  1.40D+00
                    CP:  1.05D+00  1.31D+00  1.34D+00  1.22D+00
 E= -1419.29704941301     Delta-E=       -0.000000220608 Rises=F Damp=F
 DIIS: error= 7.22D-06 at cycle  10 NSaved=  10.
 NSaved=10 IEnMin=10 EnMin= -1419.29704941301     IErMin=10 ErrMin= 7.22D-06
 ErrMax= 7.22D-06  0.00D+00 EMaxC= 1.00D-01 BMatC= 1.85D-08 BMatP= 9.59D-08
 IDIUse=1 WtCom= 1.00D+00 WtEn= 0.00D+00
 Coeff-Com:  0.100D-03-0.227D-03 0.187D-04 0.706D-03 0.700D-02-0.125D-01
 Coeff-Com: -0.603D-01-0.381D-01 0.346D+00 0.758D+00
 Coeff:      0.100D-03-0.227D-03 0.187D-04 0.706D-03 0.700D-02-0.125D-01
 Coeff:     -0.603D-01-0.381D-01 0.346D+00 0.758D+00
 Gap=     0.241 Goal=   None    Shift=    0.000
 RMSDP=1.74D-06 MaxDP=1.37D-04 DE=-2.21D-07 OVMax= 1.13D-04

 Cycle  11  Pass 1  IDiag  1:
 RMSU=  1.13D-06    CP:  9.57D-01  1.74D+00  8.92D-01  9.56D-01  1.40D+00
                    CP:  1.05D+00  1.32D+00  1.39D+00  1.34D+00  9.89D-01
 E= -1419.29704944655     Delta-E=       -0.000000033541 Rises=F Damp=F
 DIIS: error= 1.31D-06 at cycle  11 NSaved=  11.
 NSaved=11 IEnMin=11 EnMin= -1419.29704944655     IErMin=11 ErrMin= 1.31D-06
 ErrMax= 1.31D-06  0.00D+00 EMaxC= 1.00D-01 BMatC= 2.58D-09 BMatP= 1.85D-08
 IDIUse=1 WtCom= 1.00D+00 WtEn= 0.00D+00
 Coeff-Com:  0.180D-03-0.389D-03-0.411D-03-0.138D-03 0.488D-02 0.340D-02
 Coeff-Com: -0.127D-01-0.509D-01-0.168D-01 0.260D+00 0.813D+00
 Coeff:      0.180D-03-0.389D-03-0.411D-03-0.138D-03 0.488D-02 0.340D-02
 Coeff:     -0.127D-01-0.509D-01-0.168D-01 0.260D+00 0.813D+00
 Gap=     0.241 Goal=   None    Shift=    0.000
 RMSDP=8.36D-07 MaxDP=9.27D-05 DE=-3.35D-08 OVMax= 2.92D-05

 Cycle  12  Pass 1  IDiag  1:
 RMSU=  3.57D-07    CP:  9.57D-01  1.74D+00  8.92D-01  9.56D-01  1.40D+00
                    CP:  1.05D+00  1.32D+00  1.39D+00  1.39D+00  1.14D+00
                    CP:  1.13D+00
 E= -1419.29704945224     Delta-E=       -0.000000005689 Rises=F Damp=F
 DIIS: error= 8.48D-07 at cycle  12 NSaved=  12.
 NSaved=12 IEnMin=12 EnMin= -1419.29704945224     IErMin=12 ErrMin= 8.48D-07
 ErrMax= 8.48D-07  0.00D+00 EMaxC= 1.00D-01 BMatC= 3.21D-10 BMatP= 2.58D-09
 IDIUse=1 WtCom= 1.00D+00 WtEn= 0.00D+00
 Coeff-Com:  0.224D-04-0.470D-04-0.916D-04-0.122D-03 0.137D-04 0.321D-02
 Coeff-Com:  0.877D-02-0.788D-02-0.722D-01-0.483D-01 0.218D+00 0.899D+00
 Coeff:      0.224D-04-0.470D-04-0.916D-04-0.122D-03 0.137D-04 0.321D-02
 Coeff:      0.877D-02-0.788D-02-0.722D-01-0.483D-01 0.218D+00 0.899D+00
 Gap=     0.241 Goal=   None    Shift=    0.000
 RMSDP=2.89D-07 MaxDP=2.23D-05 DE=-5.69D-09 OVMax= 1.51D-05

 Cycle  13  Pass 1  IDiag  1:
 RMSU=  2.27D-07    CP:  9.57D-01  1.74D+00  8.92D-01  9.56D-01  1.40D+00
                    CP:  1.05D+00  1.33D+00  1.39D+00  1.40D+00  1.17D+00
                    CP:  1.25D+00  9.55D-01
 E= -1419.29704945344     Delta-E=       -0.000000001203 Rises=F Damp=F
 DIIS: error= 2.55D-07 at cycle  13 NSaved=  13.
 NSaved=13 IEnMin=13 EnMin= -1419.29704945344     IErMin=13 ErrMin= 2.55D-07
 ErrMax= 2.55D-07  0.00D+00 EMaxC= 1.00D-01 BMatC= 4.91D-11 BMatP= 3.21D-10
 IDIUse=1 WtCom= 1.00D+00 WtEn= 0.00D+00
 Coeff-Com: -0.115D-04 0.254D-04 0.205D-04-0.226D-04-0.561D-03 0.376D-03
 Coeff-Com:  0.351D-02 0.402D-02-0.166D-01-0.400D-01-0.662D-01 0.204D+00
 Coeff-Com:  0.912D+00
 Coeff:     -0.115D-04 0.254D-04 0.205D-04-0.226D-04-0.561D-03 0.376D-03
 Coeff:      0.351D-02 0.402D-02-0.166D-01-0.400D-01-0.662D-01 0.204D+00
 Coeff:      0.912D+00
 Gap=     0.241 Goal=   None    Shift=    0.000
 RMSDP=1.30D-07 MaxDP=1.51D-05 DE=-1.20D-09 OVMax= 6.36D-06

 Cycle  14  Pass 1  IDiag  1:
 RMSU=  6.58D-08    CP:  9.57D-01  1.74D+00  8.92D-01  9.56D-01  1.40D+00
                    CP:  1.05D+00  1.33D+00  1.39D+00  1.40D+00  1.18D+00
                    CP:  1.28D+00  1.06D+00  1.28D+00
 E= -1419.29704945339     Delta-E=        0.000000000058 Rises=F Damp=F
 DIIS: error= 1.06D-07 at cycle  14 NSaved=  14.
 NSaved=14 IEnMin=13 EnMin= -1419.29704945344     IErMin=14 ErrMin= 1.06D-07
 ErrMax= 1.06D-07  0.00D+00 EMaxC= 1.00D-01 BMatC= 9.79D-12 BMatP= 4.91D-11
 IDIUse=1 WtCom= 1.00D+00 WtEn= 0.00D+00
 Coeff-Com: -0.406D-05 0.884D-05 0.147D-04 0.300D-05-0.138D-03-0.269D-03
 Coeff-Com: -0.165D-03 0.218D-02 0.462D-02-0.307D-02-0.486D-01-0.693D-01
 Coeff-Com:  0.289D+00 0.826D+00
 Coeff:     -0.406D-05 0.884D-05 0.147D-04 0.300D-05-0.138D-03-0.269D-03
 Coeff:     -0.165D-03 0.218D-02 0.462D-02-0.307D-02-0.486D-01-0.693D-01
 Coeff:      0.289D+00 0.826D+00
 Gap=     0.241 Goal=   None    Shift=    0.000
 RMSDP=7.86D-08 MaxDP=7.85D-06 DE= 5.82D-11 OVMax= 2.98D-06

 Cycle  15  Pass 1  IDiag  1:
 RMSU=  3.52D-08    CP:  9.57D-01  1.74D+00  8.92D-01  9.56D-01  1.40D+00
                    CP:  1.05D+00  1.33D+00  1.39D+00  1.40D+00  1.18D+00
                    CP:  1.28D+00  1.08D+00  1.44D+00  1.09D+00
 E= -1419.29704945354     Delta-E=       -0.000000000158 Rises=F Damp=F
 DIIS: error= 5.61D-08 at cycle  15 NSaved=  15.
 NSaved=15 IEnMin=15 EnMin= -1419.29704945354     IErMin=15 ErrMin= 5.61D-08
 ErrMax= 5.61D-08  0.00D+00 EMaxC= 1.00D-01 BMatC= 1.75D-12 BMatP= 9.79D-12
 IDIUse=1 WtCom= 1.00D+00 WtEn= 0.00D+00
 Coeff-Com:  0.136D-05-0.301D-05 0.142D-06 0.573D-05 0.677D-04-0.130D-03
 Coeff-Com: -0.756D-03-0.179D-03 0.420D-02 0.699D-02 0.244D-02-0.636D-01
 Coeff-Com: -0.126D+00 0.212D+00 0.965D+00
 Coeff:      0.136D-05-0.301D-05 0.142D-06 0.573D-05 0.677D-04-0.130D-03
 Coeff:     -0.756D-03-0.179D-03 0.420D-02 0.699D-02 0.244D-02-0.636D-01
 Coeff:     -0.126D+00 0.212D+00 0.965D+00
 Gap=     0.241 Goal=   None    Shift=    0.000
 RMSDP=4.33D-08 MaxDP=5.62D-06 DE=-1.58D-10 OVMax= 1.94D-06

 Cycle  16  Pass 1  IDiag  1:
 RMSU=  2.81D-08    CP:  9.57D-01  1.74D+00  8.92D-01  9.56D-01  1.40D+00
                    CP:  1.05D+00  1.33D+00  1.39D+00  1.40D+00  1.18D+00
                    CP:  1.27D+00  1.09D+00  1.50D+00  1.29D+00  1.42D+00
 E= -1419.29704945313     Delta-E=        0.000000000418 Rises=F Damp=F
 DIIS: error= 3.00D-08 at cycle  16 NSaved=  16.
 NSaved=16 IEnMin=15 EnMin= -1419.29704945354     IErMin=16 ErrMin= 3.00D-08
 ErrMax= 3.00D-08  0.00D+00 EMaxC= 1.00D-01 BMatC= 3.23D-13 BMatP= 1.75D-12
 IDIUse=1 WtCom= 1.00D+00 WtEn= 0.00D+00
 Coeff-Com:  0.882D-06-0.194D-05-0.168D-05 0.216D-05 0.393D-04 0.636D-05
 Coeff-Com: -0.213D-03-0.372D-03 0.592D-03 0.253D-02 0.903D-02-0.978D-02
 Coeff-Com: -0.765D-01-0.553D-01 0.287D+00 0.843D+00
 Coeff:      0.882D-06-0.194D-05-0.168D-05 0.216D-05 0.393D-04 0.636D-05
 Coeff:     -0.213D-03-0.372D-03 0.592D-03 0.253D-02 0.903D-02-0.978D-02
 Coeff:     -0.765D-01-0.553D-01 0.287D+00 0.843D+00
 Gap=     0.241 Goal=   None    Shift=    0.000
 RMSDP=5.98D-08 MaxDP=5.24D-06 DE= 4.18D-10 OVMax= 8.44D-07

 Cycle  17  Pass 1  IDiag  1:
 RMSU=  4.98D-08    CP:  9.57D-01  1.74D+00  8.92D-01  9.56D-01  1.40D+00
                    CP:  1.05D+00  1.33D+00  1.39D+00  1.39D+00  1.18D+00
                    CP:  1.28D+00  1.04D+00  1.56D+00  1.44D+00  1.80D+00
                    CP:  1.51D+00
 E= -1419.29704945308     Delta-E=        0.000000000049 Rises=F Damp=F
 DIIS: error= 2.56D-08 at cycle  17 NSaved=  17.
 NSaved=17 IEnMin=15 EnMin= -1419.29704945354     IErMin=17 ErrMin= 2.56D-08
 ErrMax= 2.56D-08  0.00D+00 EMaxC= 1.00D-01 BMatC= 1.09D-13 BMatP= 3.23D-13
 IDIUse=1 WtCom= 1.00D+00 WtEn= 0.00D+00
 Coeff-Com:  0.144D-06-0.302D-06-0.707D-06-0.145D-06 0.350D-05 0.258D-04
 Coeff-Com:  0.329D-04-0.114D-03-0.422D-03-0.294D-03 0.311D-02 0.501D-02
 Coeff-Com: -0.987D-02-0.533D-01-0.334D-01 0.283D+00 0.806D+00
 Coeff:      0.144D-06-0.302D-06-0.707D-06-0.145D-06 0.350D-05 0.258D-04
 Coeff:      0.329D-04-0.114D-03-0.422D-03-0.294D-03 0.311D-02 0.501D-02
 Coeff:     -0.987D-02-0.533D-01-0.334D-01 0.283D+00 0.806D+00
 Gap=     0.241 Goal=   None    Shift=    0.000
 RMSDP=9.00D-08 MaxDP=9.87D-06 DE= 4.91D-11 OVMax= 4.96D-07

 Cycle  18  Pass 1  IDiag  1:
 RMSU=  4.34D-08    CP:  9.57D-01  1.74D+00  8.92D-01  9.56D-01  1.40D+00
                    CP:  1.05D+00  1.33D+00  1.39D+00  1.40D+00  1.18D+00
                    CP:  1.28D+00  9.81D-01  1.61D+00  1.66D+00  1.87D+00
                    CP:  2.69D+00  2.11D+00
 E= -1419.29704945337     Delta-E=       -0.000000000296 Rises=F Damp=F
 DIIS: error= 5.01D-08 at cycle  18 NSaved=  18.
 NSaved=18 IEnMin=15 EnMin= -1419.29704945354     IErMin=17 ErrMin= 2.56D-08
 ErrMax= 5.01D-08  0.00D+00 EMaxC= 1.00D-01 BMatC= 1.92D-13 BMatP= 1.09D-13
 IDIUse=1 WtCom= 1.00D+00 WtEn= 0.00D+00
 Coeff-Com:  0.126D-06-0.259D-06-0.818D-06-0.261D-06 0.221D-05 0.336D-04
 Coeff-Com:  0.566D-04-0.131D-03-0.604D-03-0.522D-03 0.362D-02 0.731D-02
 Coeff-Com: -0.903D-02-0.681D-01-0.617D-01 0.346D+00 0.102D+01-0.239D+00
 Coeff:      0.126D-06-0.259D-06-0.818D-06-0.261D-06 0.221D-05 0.336D-04
 Coeff:      0.566D-04-0.131D-03-0.604D-03-0.522D-03 0.362D-02 0.731D-02
 Coeff:     -0.903D-02-0.681D-01-0.617D-01 0.346D+00 0.102D+01-0.239D+00
 Gap=     0.241 Goal=   None    Shift=    0.000
 RMSDP=4.48D-08 MaxDP=4.37D-06 DE=-2.96D-10 OVMax= 5.02D-08

 Cycle  19  Pass 1  IDiag  1:
 RMSU=  1.32D-08    CP:  9.57D-01  1.74D+00  8.92D-01  9.56D-01  1.40D+00
                    CP:  1.05D+00  1.33D+00  1.39D+00  1.39D+00  1.18D+00
                    CP:  1.28D+00  1.01D+00  1.58D+00  1.59D+00  1.91D+00
                    CP:  2.34D+00  1.55D+00  5.56D-01
 E= -1419.29704945324     Delta-E=        0.000000000131 Rises=F Damp=F
 DIIS: error= 3.07D-08 at cycle  19 NSaved=  19.
 NSaved=19 IEnMin=15 EnMin= -1419.29704945354     IErMin=17 ErrMin= 2.56D-08
 ErrMax= 3.07D-08  0.00D+00 EMaxC= 1.00D-01 BMatC= 1.83D-13 BMatP= 1.09D-13
 IDIUse=1 WtCom= 1.00D+00 WtEn= 0.00D+00
 Coeff-Com:  0.936D-07-0.188D-06-0.750D-06-0.392D-06 0.539D-06 0.331D-04
 Coeff-Com:  0.657D-04-0.112D-03-0.621D-03-0.635D-03 0.316D-02 0.770D-02
 Coeff-Com: -0.515D-02-0.647D-01-0.747D-01 0.298D+00 0.104D+01-0.585D+00
 Coeff-Com:  0.382D+00
 Coeff:      0.936D-07-0.188D-06-0.750D-06-0.392D-06 0.539D-06 0.331D-04
 Coeff:      0.657D-04-0.112D-03-0.621D-03-0.635D-03 0.316D-02 0.770D-02
 Coeff:     -0.515D-02-0.647D-01-0.747D-01 0.298D+00 0.104D+01-0.585D+00
 Coeff:      0.382D+00
 Gap=     0.241 Goal=   None    Shift=    0.000
 RMSDP=2.90D-08 MaxDP=1.73D-06 DE= 1.31D-10 OVMax= 2.18D-08

 Cycle  20  Pass 1  IDiag  1:
 RMSU=  2.02D-08    CP:  9.57D-01  1.74D+00  8.92D-01  9.56D-01  1.40D+00
                    CP:  1.05D+00  1.33D+00  1.39D+00  1.39D+00  1.18D+00
                    CP:  1.28D+00  1.02D+00  1.55D+00  1.53D+00  2.00D+00
                    CP:  2.14D+00  1.39D+00  2.81D-01  1.56D+00
 E= -1419.29704945299     Delta-E=        0.000000000255 Rises=F Damp=F
 DIIS: error= 2.85D-08 at cycle  20 NSaved=  20.
 NSaved=20 IEnMin=15 EnMin= -1419.29704945354     IErMin=17 ErrMin= 2.56D-08
 ErrMax= 2.85D-08  0.00D+00 EMaxC= 1.00D-01 BMatC= 1.54D-13 BMatP= 1.09D-13
 IDIUse=1 WtCom= 1.00D+00 WtEn= 0.00D+00
 Coeff-Com:  0.943D-07-0.189D-06-0.746D-06-0.386D-06 0.595D-06 0.328D-04
 Coeff-Com:  0.649D-04-0.112D-03-0.614D-03-0.626D-03 0.315D-02 0.762D-02
 Coeff-Com: -0.520D-02-0.642D-01-0.736D-01 0.296D+00 0.103D+01-0.571D+00
 Coeff-Com:  0.355D+00 0.227D-01
 Coeff:      0.943D-07-0.189D-06-0.746D-06-0.386D-06 0.595D-06 0.328D-04
 Coeff:      0.649D-04-0.112D-03-0.614D-03-0.626D-03 0.315D-02 0.762D-02
 Coeff:     -0.520D-02-0.642D-01-0.736D-01 0.296D+00 0.103D+01-0.571D+00
 Coeff:      0.355D+00 0.227D-01
 Gap=     0.241 Goal=   None    Shift=    0.000
 RMSDP=1.56D-09 MaxDP=1.81D-07 DE= 2.55D-10 OVMax= 2.56D-09

 Error on total polarization charges =  0.02031
 SCF Done:  E(RCAM-B3LYP) =  -1419.29704945     A.U. after   20 cycles
            NFock= 20  Conv=0.16D-08     -V/T= 2.0041
 KE= 1.413442386597D+03 PE=-9.949656520944D+03 EE= 3.780312063342D+03
 Leave Link  502 at Mon Feb 17 09:33:47 2020, MaxMem=  6710886400 cpu:     14785.9
 (Enter /opt/sys/apps/gaussian09/D.01/g09/l801.exe)
 DoSCS=F DFT=T ScalE2(SS,OS)=  1.000000  1.000000
 ExpMin= 3.60D-02 ExpMax= 8.59D+03 ExpMxC= 1.30D+03 IAcc=3 IRadAn=         5 AccDes= 0.00D+00
 HarFok:  IExCor=  205 AccDes= 0.00D+00 IRadAn=         5 IDoV=-2 UseB2=F ITyADJ=14
 ICtDFT= 12500011 ScaDFX=  1.000000  1.000000  1.000000  1.000000
 Largest valence mixing into a core orbital is  4.50D-05
 Largest core mixing into a valence orbital is  1.12D-05
 Range of M.O.s used for correlation:    34   929
 NBasis=   943 NAE=   118 NBE=   118 NFC=    33 NFV=     0
 NROrb=    896 NOA=    85 NOB=    85 NVA=   811 NVB=   811

 **** Warning!!: The largest alpha MO coefficient is  0.12679052D+03

 Leave Link  801 at Mon Feb 17 09:33:49 2020, MaxMem=  6710886400 cpu:        12.5
 (Enter /opt/sys/apps/gaussian09/D.01/g09/l914.exe)
 RHF ground state
 MDV=  6710886400 DFT=T DoStab=F Mixed=T DoRPA=T DoScal=F NonHer=T
 Would need an additional        591468400000 words for in-memory AO integral storage.
 NEqPCM:  Using non-equilibrium solvation (IEInf=1, Eps=  24.8520, EpsInf=   1.8526)
 Inv3:  Mode=1 IEnd=    53526528.
 Iteration    1 A*A^-1 deviation from unit magnitude is 6.66D-15 for   4181.
 Iteration    1 A*A^-1 deviation from orthogonality  is 2.33D-15 for   4224   4104.
 Iteration    1 A^-1*A deviation from unit magnitude is 6.55D-15 for   4219.
 Iteration    1 A^-1*A deviation from orthogonality  is 1.90D-15 for   3107   1343.
 Making orbital integer symmetry assigments:
    40 initial guesses have been made.
 Convergence on wavefunction:    0.000001000000000
 Davidson Disk Diagonalization:  ConvIn= 1.00D-06 SkipCon=T Conv= 1.00D-06.
 Max sub-space:   200 roots to seek:    40 dimension of matrix:       137870
 Iteration     1 Dimension    40 NMult     0 NNew     40
 CISAX will form    40 AO SS matrices at one time.
 NMat=    40 NSing=    40 JSym2X= 0.
 FoFJK:  IHMeth= 1 ICntrl=       0 DoSepK=T KAlg= 0 I1Cent=   0 FoldK=F
 IRaf=         1 NMat=  80 IRICut=       1 DoRegI=T DoRafI=F ISym2E= 0.
 New state      3 was old state      4
 New state      4 was old state     14
 New state      5 was old state      3
 New state      6 was old state      5
 New state      8 was old state      6
 New state      9 was old state     21
 New state     10 was old state      8
 Excitation Energies [eV] at current iteration:
 Root      1 :     3.489551284775421
 Root      2 :     4.377185228405651
 Root      3 :     5.119460117436251
 Root      4 :     5.339915822970986
 Root      5 :     5.504473900529319
 Root      6 :     5.546388803808853
 Root      7 :     5.663877812292661
 Root      8 :     5.924378326719641
 Root      9 :     6.129918631251078
 Root     10 :     6.218267495084175
 Root     11 :     6.434868552539817
 Root     12 :     6.586176702158663
 Root     13 :     6.729094244927974
 Root     14 :     6.746143629257901
 Root     15 :     6.875279578463675
 Root     16 :     6.926099701428670
 Root     17 :     7.014007658031541
 Root     18 :     7.081700201121942
 Root     19 :     7.144331596992996
 Root     20 :     7.170279821769308
 Root     21 :     7.186098918799225
 Root     22 :     7.223726955876099
 Root     23 :     7.276457142579134
 Root     24 :     7.399785567315548
 Root     25 :     7.509259962277384
 Root     26 :     7.629748401772297
 Root     27 :     7.698236543077380
 Root     28 :     7.755310574131984
 Root     29 :     7.816297324221103
 Root     30 :     7.868126475790501
 Root     31 :     7.911850008944696
 Root     32 :     8.004404243608002
 Root     33 :     8.073664615822834
 Root     34 :     8.151809822922250
 Root     35 :     8.203795713086944
 Root     36 :     8.257592135093454
 Root     37 :     8.343226409935436
 Root     38 :     8.367422321912331
 Root     39 :     8.414233950838847
 Root     40 :     8.468028301553678
 Iteration     2 Dimension    60 NMult    40 NNew     20
 CISAX will form    20 AO SS matrices at one time.
 NMat=    20 NSing=    20 JSym2X= 0.
 Root      1 not converged, maximum delta is    0.045156141431570
 Root      2 not converged, maximum delta is    0.049682226493356
 Root      3 not converged, maximum delta is    0.194034747588229
 Root      4 not converged, maximum delta is    0.124038878967164
 Root      5 not converged, maximum delta is    0.127306910839500
 New state      6 was old state      7
 Root      6 not converged, maximum delta is    0.277039738673938
 New state      7 was old state      6
 Root      7 not converged, maximum delta is    0.419810448241954
 Root      8 not converged, maximum delta is    0.480609161977006
 Root      9 not converged, maximum delta is    0.268203967941344
 Root     10 not converged, maximum delta is    0.126395353870183
 Excitation Energies [eV] at current iteration:
 Root      1 :     2.867392403890072   Change is   -0.622158880885349
 Root      2 :     3.883486664301949   Change is   -0.493698564103701
 Root      3 :     4.600851150138881   Change is   -0.518608967297370
 Root      4 :     4.845925348350608   Change is   -0.493990474620378
 Root      5 :     4.991029590839865   Change is   -0.513444309689453
 Root      6 :     5.183410487041245   Change is   -0.480467325251417
 Root      7 :     5.329512694351819   Change is   -0.216876109457034
 Root      8 :     5.365738616430974   Change is   -0.558639710288666
 Root      9 :     5.693426764401405   Change is   -0.436491866849673
 Root     10 :     5.850059013509950   Change is   -0.368208481574225
 Iteration     3 Dimension    80 NMult    60 NNew     20
 CISAX will form    20 AO SS matrices at one time.
 NMat=    20 NSing=    20 JSym2X= 0.
 Root      1 not converged, maximum delta is    0.022731133545545
 Root      2 not converged, maximum delta is    0.012890731878359
 Root      3 not converged, maximum delta is    0.026939852028644
 Root      4 not converged, maximum delta is    0.025196830830400
 Root      5 not converged, maximum delta is    0.013708813507892
 Root      6 not converged, maximum delta is    0.035038756126005
 New state      7 was old state      8
 Root      7 not converged, maximum delta is    0.170499740911233
 New state      8 was old state      7
 Root      8 not converged, maximum delta is    0.307105473410831
 Root      9 not converged, maximum delta is    0.029693913720100
 Root     10 not converged, maximum delta is    0.055431176813134
 Excitation Energies [eV] at current iteration:
 Root      1 :     2.815858980550639   Change is   -0.051533423339433
 Root      2 :     3.855322319112474   Change is   -0.028164345189475
 Root      3 :     4.546861814918636   Change is   -0.053989335220245
 Root      4 :     4.794157541079148   Change is   -0.051767807271460
 Root      5 :     4.950657462369775   Change is   -0.040372128470090
 Root      6 :     5.122924515316051   Change is   -0.060485971725193
 Root      7 :     5.287711295484595   Change is   -0.078027320946379
 Root      8 :     5.303662454119941   Change is   -0.025850240231878
 Root      9 :     5.671727433002814   Change is   -0.021699331398591
 Root     10 :     5.815314987234021   Change is   -0.034744026275930
 Iteration     4 Dimension   100 NMult    80 NNew     20
 CISAX will form    20 AO SS matrices at one time.
 NMat=    20 NSing=    20 JSym2X= 0.
 Root      1 not converged, maximum delta is    0.005969490286797
 Root      2 not converged, maximum delta is    0.004444564700068
 Root      3 not converged, maximum delta is    0.013729858526458
 Root      4 not converged, maximum delta is    0.014237707086036
 Root      5 not converged, maximum delta is    0.023560886038700
 Root      6 not converged, maximum delta is    0.037887092356654
 Root      7 not converged, maximum delta is    0.160310750849578
 Root      8 not converged, maximum delta is    0.119168958926692
 Root      9 not converged, maximum delta is    0.246505261331378
 Root     10 not converged, maximum delta is    0.399267313542249
 Excitation Energies [eV] at current iteration:
 Root      1 :     2.809823589727015   Change is   -0.006035390823624
 Root      2 :     3.851113310310549   Change is   -0.004209008801926
 Root      3 :     4.537655684244367   Change is   -0.009206130674269
 Root      4 :     4.787307943343497   Change is   -0.006849597735651
 Root      5 :     4.943442964632387   Change is   -0.007214497737388
 Root      6 :     5.106003975020909   Change is   -0.016920540295143
 Root      7 :     5.180210630218077   Change is   -0.107500665266517
 Root      8 :     5.296334840008314   Change is   -0.007327614111626
 Root      9 :     5.646777725334239   Change is   -0.024949707668575
 Root     10 :     5.690727036875271   Change is   -0.124587950358750
 Iteration     5 Dimension   120 NMult   100 NNew     20
 CISAX will form    20 AO SS matrices at one time.
 NMat=    20 NSing=    20 JSym2X= 0.
 Root      1 not converged, maximum delta is    0.001190106692581
 Root      2 not converged, maximum delta is    0.001239903456301
 Root      3 not converged, maximum delta is    0.006400114203473
 Root      4 not converged, maximum delta is    0.005092653623888
 Root      5 not converged, maximum delta is    0.015461212864463
 Root      6 not converged, maximum delta is    0.049428204303517
 Root      7 not converged, maximum delta is    0.092321081241903
 Root      8 not converged, maximum delta is    0.004796708729292
 Root      9 not converged, maximum delta is    0.277270301684896
 Root     10 not converged, maximum delta is    0.261676726239264
 Excitation Energies [eV] at current iteration:
 Root      1 :     2.809245799404375   Change is   -0.000577790322640
 Root      2 :     3.850793497299648   Change is   -0.000319813010901
 Root      3 :     4.536238871126141   Change is   -0.001416813118226
 Root      4 :     4.786568915710473   Change is   -0.000739027633025
 Root      5 :     4.941515408515659   Change is   -0.001927556116727
 Root      6 :     5.099640179875331   Change is   -0.006363795145577
 Root      7 :     5.140701038113823   Change is   -0.039509592104254
 Root      8 :     5.294974797714808   Change is   -0.001360042293507
 Root      9 :     5.571363987278369   Change is   -0.075413738055870
 Root     10 :     5.647436036667186   Change is   -0.043291000208086
 Iteration     6 Dimension   140 NMult   120 NNew     20
 CISAX will form    20 AO SS matrices at one time.
 NMat=    20 NSing=    20 JSym2X= 0.
 Root      1 not converged, maximum delta is    0.000158745584801
 Root      2 not converged, maximum delta is    0.000233382973727
 Root      3 not converged, maximum delta is    0.001575859304902
 Root      4 not converged, maximum delta is    0.001406401806230
 Root      5 not converged, maximum delta is    0.004777625958130
 Root      6 not converged, maximum delta is    0.019752885967403
 Root      7 not converged, maximum delta is    0.026718489936278
 Root      8 not converged, maximum delta is    0.001035506717011
 Root      9 not converged, maximum delta is    0.031786262524277
 Root     10 not converged, maximum delta is    0.041132558886078
 Excitation Energies [eV] at current iteration:
 Root      1 :     2.809217507060035   Change is   -0.000028292344340
 Root      2 :     3.850767088116560   Change is   -0.000026409183087
 Root      3 :     4.536056720463877   Change is   -0.000182150662263
 Root      4 :     4.786484229802888   Change is   -0.000084685907585
 Root      5 :     4.941155941928983   Change is   -0.000359466586677
 Root      6 :     5.097891750231275   Change is   -0.001748429644057
 Root      7 :     5.132047831748876   Change is   -0.008653206364948
 Root      8 :     5.294808293424742   Change is   -0.000166504290066
 Root      9 :     5.552714941888533   Change is   -0.018649045389836
 Root     10 :     5.639786068005517   Change is   -0.007649968661668
 Iteration     7 Dimension   160 NMult   140 NNew     20
 CISAX will form    20 AO SS matrices at one time.
 NMat=    20 NSing=    20 JSym2X= 0.
 Root      1 not converged, maximum delta is    0.000038026049200
 Root      2 not converged, maximum delta is    0.000067444244371
 Root      3 not converged, maximum delta is    0.000582183758130
 Root      4 not converged, maximum delta is    0.000769616367195
 Root      5 not converged, maximum delta is    0.001628395357379
 Root      6 not converged, maximum delta is    0.007985284705949
 Root      7 not converged, maximum delta is    0.023360320326207
 Root      8 not converged, maximum delta is    0.000806447325251
 Root      9 not converged, maximum delta is    0.044991354661180
 Root     10 not converged, maximum delta is    0.324286644238565
 Excitation Energies [eV] at current iteration:
 Root      1 :     2.809215929271788   Change is   -0.000001577788246
 Root      2 :     3.850765447785015   Change is   -0.000001640331545
 Root      3 :     4.536029050282523   Change is   -0.000027670181355
 Root      4 :     4.786469189166666   Change is   -0.000015040636222
 Root      5 :     4.941081966726110   Change is   -0.000073975202873
 Root      6 :     5.097454617379917   Change is   -0.000437132851358
 Root      7 :     5.127098430779897   Change is   -0.004949400968978
 Root      8 :     5.294783754974068   Change is   -0.000024538450674
 Root      9 :     5.543613715849657   Change is   -0.009101226038876
 Root     10 :     5.611131683627281   Change is   -0.028654384378236
 Iteration     8 Dimension   180 NMult   160 NNew     20
 CISAX will form    20 AO SS matrices at one time.
 NMat=    20 NSing=    20 JSym2X= 0.
 Root      1 not converged, maximum delta is    0.000006791771896
 Root      2 not converged, maximum delta is    0.000019714079398
 Root      3 not converged, maximum delta is    0.000329754650524
 Root      4 not converged, maximum delta is    0.000188264714027
 Root      5 not converged, maximum delta is    0.000492730528142
 Root      6 not converged, maximum delta is    0.002041369550794
 Root      7 not converged, maximum delta is    0.020368974121433
 Root      8 not converged, maximum delta is    0.000295369251497
 New state      9 was old state     10
 Root      9 not converged, maximum delta is    0.234528673499062
 New state     10 was old state      9
 Root     10 not converged, maximum delta is    0.164614169741133
 Excitation Energies [eV] at current iteration:
 Root      1 :     2.809215862637730   Change is   -0.000000066634059
 Root      2 :     3.850765339171563   Change is   -0.000000108613452
 Root      3 :     4.536024758569764   Change is   -0.000004291712759
 Root      4 :     4.786467227012689   Change is   -0.000001962153977
 Root      5 :     4.941070794433733   Change is   -0.000011172292378
 Root      6 :     5.097381676701819   Change is   -0.000072940678098
 Root      7 :     5.124833559044324   Change is   -0.002264871735573
 Root      8 :     5.294780671697780   Change is   -0.000003083276288
 Root      9 :     5.498181266612646   Change is   -0.112950417014636
 Root     10 :     5.548917685959240   Change is    0.005303970109583
 Iteration     9 Dimension   200 NMult   180 NNew     20
 CISAX will form    20 AO SS matrices at one time.
 NMat=    20 NSing=    20 JSym2X= 0.
 Root      1 not converged, maximum delta is    0.000002352053359
 Root      2 not converged, maximum delta is    0.000005032838875
 Root      3 not converged, maximum delta is    0.000086691123332
 Root      4 not converged, maximum delta is    0.000027848035735
 Root      5 not converged, maximum delta is    0.000077742779055
 Root      6 not converged, maximum delta is    0.000362986071032
 Root      7 not converged, maximum delta is    0.008160902955939
 Root      8 not converged, maximum delta is    0.000063671891252
 Root      9 not converged, maximum delta is    0.058509089707923
 Root     10 not converged, maximum delta is    0.046321509657087
 Excitation Energies [eV] at current iteration:
 Root      1 :     2.809215859956403   Change is   -0.000000002681327
 Root      2 :     3.850765331160293   Change is   -0.000000008011269
 Root      3 :     4.536024347436126   Change is   -0.000000411133638
 Root      4 :     4.786467048206978   Change is   -0.000000178805711
 Root      5 :     4.941069805527360   Change is   -0.000000988906372
 Root      6 :     5.097373887148369   Change is   -0.000007789553451
 Root      7 :     5.124234654224502   Change is   -0.000598904819823
 Root      8 :     5.294780324186195   Change is   -0.000000347511585
 Root      9 :     5.465171840113745   Change is   -0.033009426498901
 Root     10 :     5.546798004529729   Change is   -0.002119681429511
 Davidson failed to converge within maximum sub-space dimensions.
  Restart with updated initial guess:
 Iteration     1 Dimension    40 NMult   200 NNew     40
 CISAX will form    40 AO SS matrices at one time.
 NMat=    40 NSing=    40 JSym2X= 0.
 Excitation Energies [eV] at current iteration:
 Root      1 :     2.809215860857923
 Root      2 :     3.850765331971104
 Root      3 :     4.536024315428489
 Root      4 :     4.786467037029634
 Root      5 :     4.941069724595069
 Root      6 :     5.097373215795154
 Root      7 :     5.124159753289946
 Root      8 :     5.294780290174769
 Root      9 :     5.459884959353681
 Root     10 :     5.546570741258803
 Iteration     2 Dimension    60 NMult   240 NNew     20
 CISAX will form    20 AO SS matrices at one time.
 NMat=    20 NSing=    20 JSym2X= 0.
 Root      1 has converged.
 Root      2 has converged.
 Root      3 not converged, maximum delta is    0.000004891882230
 Root      4 not converged, maximum delta is    0.000002408203947
 Root      5 not converged, maximum delta is    0.000007188212137
 Root      6 not converged, maximum delta is    0.000019712025889
 Root      7 not converged, maximum delta is    0.000501402720813
 Root      8 not converged, maximum delta is    0.000007421722263
 Root      9 not converged, maximum delta is    0.005189125813768
 Root     10 not converged, maximum delta is    0.001516517644041
 Excitation Energies [eV] at current iteration:
 Root      1 :     2.809215860812301   Change is   -0.000000000045622
 Root      2 :     3.850765331902640   Change is   -0.000000000068464
 Root      3 :     4.536024310068266   Change is   -0.000000005360223
 Root      4 :     4.786467034726159   Change is   -0.000000002303475
 Root      5 :     4.941069710814600   Change is   -0.000000013780470
 Root      6 :     5.097373094252404   Change is   -0.000000121542750
 Root      7 :     5.124140808628644   Change is   -0.000018944661302
 Root      8 :     5.294780283650591   Change is   -0.000000006524178
 Root      9 :     5.458233078202412   Change is   -0.001651881151269
 Root     10 :     5.546501289083202   Change is   -0.000069452175601
 Iteration     3 Dimension    76 NMult   260 NNew     16
 CISAX will form    16 AO SS matrices at one time.
 NMat=    16 NSing=    16 JSym2X= 0.
 Root      1 has converged.
 Root      2 has converged.
 Root      3 not converged, maximum delta is    0.000002553317981
 Root      4 not converged, maximum delta is    0.000001134892160
 Root      5 not converged, maximum delta is    0.000004940093466
 Root      6 not converged, maximum delta is    0.000009680648521
 Root      7 not converged, maximum delta is    0.000243900301602
 Root      8 not converged, maximum delta is    0.000004716765036
 Root      9 not converged, maximum delta is    0.003211522139927
 Root     10 not converged, maximum delta is    0.000877677977762
 Excitation Energies [eV] at current iteration:
 Root      1 :     2.809215860796294   Change is   -0.000000000016007
 Root      2 :     3.850765331931225   Change is    0.000000000028585
 Root      3 :     4.536024309304679   Change is   -0.000000000763587
 Root      4 :     4.786467034429461   Change is   -0.000000000296698
 Root      5 :     4.941069708828238   Change is   -0.000000001986362
 Root      6 :     5.097373077513055   Change is   -0.000000016739349
 Root      7 :     5.124136729472963   Change is   -0.000004079155681
 Root      8 :     5.294780282301401   Change is   -0.000000001349190
 Root      9 :     5.457726974088303   Change is   -0.000506104114108
 Root     10 :     5.546477818438924   Change is   -0.000023470644278
 Iteration     4 Dimension    92 NMult   276 NNew     16
 CISAX will form    16 AO SS matrices at one time.
 NMat=    16 NSing=    16 JSym2X= 0.
 Root      1 has converged.
 Root      2 has converged.
 Root      3 not converged, maximum delta is    0.000001214629646
 Root      4 has converged.
 Root      5 not converged, maximum delta is    0.000002988652971
 Root      6 not converged, maximum delta is    0.000006038251302
 Root      7 not converged, maximum delta is    0.000127330092436
 Root      8 not converged, maximum delta is    0.000003568562731
 Root      9 not converged, maximum delta is    0.002353807958620
 Root     10 not converged, maximum delta is    0.000669326678323
 Excitation Energies [eV] at current iteration:
 Root      1 :     2.809215860880252   Change is    0.000000000083957
 Root      2 :     3.850765331927447   Change is   -0.000000000003779
 Root      3 :     4.536024309171999   Change is   -0.000000000132680
 Root      4 :     4.786467034387503   Change is   -0.000000000041959
 Root      5 :     4.941069708501875   Change is   -0.000000000326363
 Root      6 :     5.097373075135469   Change is   -0.000000002377586
 Root      7 :     5.124135816547883   Change is   -0.000000912925080
 Root      8 :     5.294780281936474   Change is   -0.000000000364926
 Root      9 :     5.457552214846960   Change is   -0.000174759241343
 Root     10 :     5.546468465584743   Change is   -0.000009352854181
 Iteration     5 Dimension   106 NMult   292 NNew     14
 CISAX will form    14 AO SS matrices at one time.
 NMat=    14 NSing=    14 JSym2X= 0.
 Root      1 has converged.
 Root      2 has converged.
 Root      3 has converged.
 Root      4 has converged.
 Root      5 not converged, maximum delta is    0.000001250052516
 Root      6 not converged, maximum delta is    0.000003588724299
 Root      7 not converged, maximum delta is    0.000088986336733
 Root      8 not converged, maximum delta is    0.000001536573442
 Root      9 not converged, maximum delta is    0.001952652435178
 Root     10 not converged, maximum delta is    0.000506434194872
 Excitation Energies [eV] at current iteration:
 Root      1 :     2.809215860881158   Change is    0.000000000000907
 Root      2 :     3.850765331910816   Change is   -0.000000000016631
 Root      3 :     4.536024309148058   Change is   -0.000000000023941
 Root      4 :     4.786467034388378   Change is    0.000000000000876
 Root      5 :     4.941069708439833   Change is   -0.000000000062041
 Root      6 :     5.097373074644615   Change is   -0.000000000490854
 Root      7 :     5.124135599992248   Change is   -0.000000216555635
 Root      8 :     5.294780281852602   Change is   -0.000000000083872
 Root      9 :     5.457488405093768   Change is   -0.000063809753193
 Root     10 :     5.546464742596707   Change is   -0.000003722988036
 Iteration     6 Dimension   118 NMult   306 NNew     12
 CISAX will form    12 AO SS matrices at one time.
 NMat=    12 NSing=    12 JSym2X= 0.
 Root      1 has converged.
 Root      2 has converged.
 Root      3 has converged.
 Root      4 has converged.
 Root      5 has converged.
 Root      6 not converged, maximum delta is    0.000001839469178
 Root      7 not converged, maximum delta is    0.000049093896119
 Root      8 has converged.
 Root      9 not converged, maximum delta is    0.001425546481916
 Root     10 not converged, maximum delta is    0.000390729325790
 Excitation Energies [eV] at current iteration:
 Root      1 :     2.809215860839165   Change is   -0.000000000041993
 Root      2 :     3.850765331926251   Change is    0.000000000015435
 Root      3 :     4.536024309170132   Change is    0.000000000022074
 Root      4 :     4.786467034411720   Change is    0.000000000023341
 Root      5 :     4.941069708422963   Change is   -0.000000000016870
 Root      6 :     5.097373074539593   Change is   -0.000000000105022
 Root      7 :     5.124135534874922   Change is   -0.000000065117326
 Root      8 :     5.294780281845740   Change is   -0.000000000006862
 Root      9 :     5.457460975005572   Change is   -0.000027430088195
 Root     10 :     5.546463105746165   Change is   -0.000001636850542
 Iteration     7 Dimension   126 NMult   318 NNew      8
 CISAX will form     8 AO SS matrices at one time.
 NMat=     8 NSing=     8 JSym2X= 0.
 Root      1 has converged.
 Root      2 has converged.
 Root      3 has converged.
 Root      4 has converged.
 Root      5 has converged.
 Root      6 has converged.
 Root      7 not converged, maximum delta is    0.000013466598471
 Root      8 has converged.
 Root      9 not converged, maximum delta is    0.000464294148064
 Root     10 not converged, maximum delta is    0.000131683792643
 Excitation Energies [eV] at current iteration:
 Root      1 :     2.809215860796909   Change is   -0.000000000042256
 Root      2 :     3.850765331920038   Change is   -0.000000000006213
 Root      3 :     4.536024309175696   Change is    0.000000000005564
 Root      4 :     4.786467034407271   Change is   -0.000000000004449
 Root      5 :     4.941069708420700   Change is   -0.000000000002263
 Root      6 :     5.097373074517612   Change is   -0.000000000021981
 Root      7 :     5.124135522350561   Change is   -0.000000012524361
 Root      8 :     5.294780281855521   Change is    0.000000000009781
 Root      9 :     5.457453363025379   Change is   -0.000007611980194
 Root     10 :     5.546462591048968   Change is   -0.000000514697197
 Iteration     8 Dimension   132 NMult   326 NNew      6
 CISAX will form     6 AO SS matrices at one time.
 NMat=     6 NSing=     6 JSym2X= 0.
 Root      1 has converged.
 Root      2 has converged.
 Root      3 has converged.
 Root      4 has converged.
 Root      5 has converged.
 Root      6 has converged.
 Root      7 not converged, maximum delta is    0.000003751131345
 Root      8 has converged.
 Root      9 not converged, maximum delta is    0.000107643138804
 Root     10 not converged, maximum delta is    0.000046194627204
 Excitation Energies [eV] at current iteration:
 Root      1 :     2.809215860795387   Change is   -0.000000000001521
 Root      2 :     3.850765331925824   Change is    0.000000000005785
 Root      3 :     4.536024309169353   Change is   -0.000000000006343
 Root      4 :     4.786467034400177   Change is   -0.000000000007093
 Root      5 :     4.941069708396542   Change is   -0.000000000024158
 Root      6 :     5.097373074510644   Change is   -0.000000000006967
 Root      7 :     5.124135520378627   Change is   -0.000000001971934
 Root      8 :     5.294780281865209   Change is    0.000000000009688
 Root      9 :     5.457451872719142   Change is   -0.000001490306237
 Root     10 :     5.546462472414039   Change is   -0.000000118634929
 Iteration     9 Dimension   138 NMult   332 NNew      6
 CISAX will form     6 AO SS matrices at one time.
 NMat=     6 NSing=     6 JSym2X= 0.
 Root      1 has converged.
 Root      2 has converged.
 Root      3 has converged.
 Root      4 has converged.
 Root      5 has converged.
 Root      6 has converged.
 Root      7 not converged, maximum delta is    0.000002088859778
 Root      8 has converged.
 Root      9 not converged, maximum delta is    0.000063725156165
 Root     10 not converged, maximum delta is    0.000048772056708
 Excitation Energies [eV] at current iteration:
 Root      1 :     2.809215860811336   Change is    0.000000000015949
 Root      2 :     3.850765331929346   Change is    0.000000000003523
 Root      3 :     4.536024309167613   Change is   -0.000000000001739
 Root      4 :     4.786467034386266   Change is   -0.000000000013911
 Root      5 :     4.941069708424410   Change is    0.000000000027868
 Root      6 :     5.097373074520208   Change is    0.000000000009564
 Root      7 :     5.124135520052165   Change is   -0.000000000326463
 Root      8 :     5.294780281855738   Change is   -0.000000000009471
 Root      9 :     5.457451597293021   Change is   -0.000000275426121
 Root     10 :     5.546462441562663   Change is   -0.000000030851376
 Iteration    10 Dimension   144 NMult   338 NNew      6
 CISAX will form     6 AO SS matrices at one time.
 NMat=     6 NSing=     6 JSym2X= 0.
 Root      1 has converged.
 Root      2 has converged.
 Root      3 has converged.
 Root      4 has converged.
 Root      5 has converged.
 Root      6 has converged.
 Root      7 not converged, maximum delta is    0.000001117548607
 Root      8 has converged.
 Root      9 not converged, maximum delta is    0.000046381975389
 Root     10 not converged, maximum delta is    0.000035160874047
 Excitation Energies [eV] at current iteration:
 Root      1 :     2.809215860819559   Change is    0.000000000008223
 Root      2 :     3.850765331920956   Change is   -0.000000000008390
 Root      3 :     4.536024309155851   Change is   -0.000000000011763
 Root      4 :     4.786467034400727   Change is    0.000000000014461
 Root      5 :     4.941069708419352   Change is   -0.000000000005057
 Root      6 :     5.097373074488663   Change is   -0.000000000031545
 Root      7 :     5.124135519983468   Change is   -0.000000000068697
 Root      8 :     5.294780281854729   Change is   -0.000000000001009
 Root      9 :     5.457451536168881   Change is   -0.000000061124141
 Root     10 :     5.546462431059150   Change is   -0.000000010503513
 Iteration    11 Dimension   150 NMult   344 NNew      6
 CISAX will form     6 AO SS matrices at one time.
 NMat=     6 NSing=     6 JSym2X= 0.
 Root      1 has converged.
 Root      2 has converged.
 Root      3 has converged.
 Root      4 has converged.
 Root      5 has converged.
 Root      6 has converged.
 Root      7 has converged.
 Root      8 has converged.
 Root      9 not converged, maximum delta is    0.000028226370244
 Root     10 not converged, maximum delta is    0.000017395715484
 Excitation Energies [eV] at current iteration:
 Root      1 :     2.809215860832640   Change is    0.000000000013081
 Root      2 :     3.850765331926507   Change is    0.000000000005550
 Root      3 :     4.536024309151338   Change is   -0.000000000004513
 Root      4 :     4.786467034398391   Change is   -0.000000000002336
 Root      5 :     4.941069708406042   Change is   -0.000000000013310
 Root      6 :     5.097373074492904   Change is    0.000000000004241
 Root      7 :     5.124135519944931   Change is   -0.000000000038536
 Root      8 :     5.294780281865116   Change is    0.000000000010387
 Root      9 :     5.457451519419413   Change is   -0.000000016749467
 Root     10 :     5.546462427338614   Change is   -0.000000003720536
 Iteration    12 Dimension   154 NMult   350 NNew      4
 CISAX will form     4 AO SS matrices at one time.
 NMat=     4 NSing=     4 JSym2X= 0.
 Root      1 has converged.
 Root      2 has converged.
 Root      3 has converged.
 Root      4 has converged.
 Root      5 has converged.
 Root      6 has converged.
 Root      7 has converged.
 Root      8 has converged.
 Root      9 not converged, maximum delta is    0.000020636583373
 Root     10 not converged, maximum delta is    0.000012124779164
 Excitation Energies [eV] at current iteration:
 Root      1 :     2.809215860827899   Change is   -0.000000000004741
 Root      2 :     3.850765331918374   Change is   -0.000000000008133
 Root      3 :     4.536024309151573   Change is    0.000000000000236
 Root      4 :     4.786467034405073   Change is    0.000000000006681
 Root      5 :     4.941069708410367   Change is    0.000000000004325
 Root      6 :     5.097373074488469   Change is   -0.000000000004435
 Root      7 :     5.124135519934375   Change is   -0.000000000010556
 Root      8 :     5.294780281862616   Change is   -0.000000000002500
 Root      9 :     5.457451512810760   Change is   -0.000000006608654
 Root     10 :     5.546462425694794   Change is   -0.000000001643820
 Iteration    13 Dimension   158 NMult   354 NNew      4
 CISAX will form     4 AO SS matrices at one time.
 NMat=     4 NSing=     4 JSym2X= 0.
 Root      1 has converged.
 Root      2 has converged.
 Root      3 has converged.
 Root      4 has converged.
 Root      5 has converged.
 Root      6 has converged.
 Root      7 has converged.
 Root      8 has converged.
 Root      9 not converged, maximum delta is    0.000018802515259
 Root     10 not converged, maximum delta is    0.000009549415371
 Excitation Energies [eV] at current iteration:
 Root      1 :     2.809215860838171   Change is    0.000000000010272
 Root      2 :     3.850765331916794   Change is   -0.000000000001580
 Root      3 :     4.536024309149381   Change is   -0.000000000002193
 Root      4 :     4.786467034402411   Change is   -0.000000000002662
 Root      5 :     4.941069708412398   Change is    0.000000000002030
 Root      6 :     5.097373074488421   Change is   -0.000000000000048
 Root      7 :     5.124135519933766   Change is   -0.000000000000610
 Root      8 :     5.294780281858642   Change is   -0.000000000003974
 Root      9 :     5.457451509340043   Change is   -0.000000003470717
 Root     10 :     5.546462424770963   Change is   -0.000000000923831
 Iteration    14 Dimension   162 NMult   358 NNew      4
 CISAX will form     4 AO SS matrices at one time.
 NMat=     4 NSing=     4 JSym2X= 0.
 Root      1 has converged.
 Root      2 has converged.
 Root      3 has converged.
 Root      4 has converged.
 Root      5 has converged.
 Root      6 has converged.
 Root      7 has converged.
 Root      8 has converged.
 Root      9 not converged, maximum delta is    0.000009815708654
 Root     10 not converged, maximum delta is    0.000004804103521
 Excitation Energies [eV] at current iteration:
 Root      1 :     2.809215860863044   Change is    0.000000000024874
 Root      2 :     3.850765331921490   Change is    0.000000000004696
 Root      3 :     4.536024309150541   Change is    0.000000000001160
 Root      4 :     4.786467034405261   Change is    0.000000000002850
 Root      5 :     4.941069708439833   Change is    0.000000000027435
 Root      6 :     5.097373074486018   Change is   -0.000000000002403
 Root      7 :     5.124135519932963   Change is   -0.000000000000802
 Root      8 :     5.294780281861560   Change is    0.000000000002918
 Root      9 :     5.457451508024199   Change is   -0.000000001315844
 Root     10 :     5.546462424358878   Change is   -0.000000000412085
 Iteration    15 Dimension   166 NMult   362 NNew      4
 CISAX will form     4 AO SS matrices at one time.
 NMat=     4 NSing=     4 JSym2X= 0.
 Root      1 has converged.
 Root      2 has converged.
 Root      3 has converged.
 Root      4 has converged.
 Root      5 has converged.
 Root      6 has converged.
 Root      7 has converged.
 Root      8 has converged.
 Root      9 not converged, maximum delta is    0.000003407690159
 Root     10 not converged, maximum delta is    0.000001481036239
 Excitation Energies [eV] at current iteration:
 Root      1 :     2.809215860866058   Change is    0.000000000003014
[...]
 Alpha virt. eigenvalues --    0.14709   0.14823   0.14914   0.15169   0.15268
 Alpha virt. eigenvalues --    0.15465   0.15643   0.15913   0.15973   0.16033
 Alpha virt. eigenvalues --    0.16297   0.16432   0.16504   0.16784   0.16946
 Alpha virt. eigenvalues --    0.17133   0.17307   0.17437   0.17583   0.17761
 Alpha virt. eigenvalues --    0.17810   0.17854   0.18175   0.18456   0.18664
 Alpha virt. eigenvalues --    0.18792   0.18887   0.18939   0.19158   0.19339
 Alpha virt. eigenvalues --    0.19547   0.19821   0.19915   0.20072   0.20311
 Alpha virt. eigenvalues --    0.20460   0.20818   0.21177   0.21249   0.21407
 Alpha virt. eigenvalues --    0.21605   0.21784   0.22001   0.22051   0.22128
 Alpha virt. eigenvalues --    0.22409   0.22795   0.22844   0.23027   0.23095
 Alpha virt. eigenvalues --    0.23444   0.23603   0.23732   0.24133   0.24163
 Alpha virt. eigenvalues --    0.24629   0.24766   0.25114   0.25217   0.25473
 Alpha virt. eigenvalues --    0.25548   0.25899   0.26058   0.26205   0.26336
 Alpha virt. eigenvalues --    0.26559   0.26939   0.27154   0.27395   0.27513
 Alpha virt. eigenvalues --    0.27794   0.28098   0.28315   0.28512   0.28872
 Alpha virt. eigenvalues --    0.29085   0.29237   0.29429   0.29644   0.29838
 Alpha virt. eigenvalues --    0.30106   0.30313   0.30472   0.30850   0.31251
 Alpha virt. eigenvalues --    0.31407   0.31630   0.31998   0.32246   0.32455
 Alpha virt. eigenvalues --    0.32712   0.32762   0.33138   0.33323   0.33478
 Alpha virt. eigenvalues --    0.33625   0.33823   0.34074   0.34294   0.34355
 Alpha virt. eigenvalues --    0.34627   0.34665   0.34976   0.35202   0.35338
 Alpha virt. eigenvalues --    0.35449   0.35513   0.35792   0.36277   0.36515
 Alpha virt. eigenvalues --    0.36639   0.36734   0.36931   0.37276   0.37499
 Alpha virt. eigenvalues --    0.37526   0.37856   0.38004   0.38119   0.38264
 Alpha virt. eigenvalues --    0.38594   0.38751   0.38807   0.39087   0.39325
 Alpha virt. eigenvalues --    0.39438   0.39878   0.40351   0.40416   0.40789
 Alpha virt. eigenvalues --    0.40881   0.41176   0.41542   0.41636   0.41760
 Alpha virt. eigenvalues --    0.42041   0.42463   0.42718   0.43020   0.43168
 Alpha virt. eigenvalues --    0.43552   0.44059   0.44112   0.44335   0.44610
 Alpha virt. eigenvalues --    0.44729   0.45225   0.45453   0.45643   0.45860
 Alpha virt. eigenvalues --    0.46508   0.46618   0.47166   0.47306   0.47875
 Alpha virt. eigenvalues --    0.48012   0.48482   0.48759   0.49112   0.49330
 Alpha virt. eigenvalues --    0.50197   0.50744   0.51324   0.51753   0.52475
 Alpha virt. eigenvalues --    0.52608   0.53370   0.54137   0.54723   0.55389
 Alpha virt. eigenvalues --    0.55565   0.56476   0.56602   0.57191   0.57980
 Alpha virt. eigenvalues --    0.58994   0.59619   0.60214   0.60515   0.61068
 Alpha virt. eigenvalues --    0.61688   0.61993   0.62855   0.63091   0.63664
 Alpha virt. eigenvalues --    0.64435   0.64591   0.64770   0.65640   0.65795
 Alpha virt. eigenvalues --    0.66170   0.66569   0.67194   0.67804   0.68191
 Alpha virt. eigenvalues --    0.68384   0.68644   0.69385   0.69887   0.70065
 Alpha virt. eigenvalues --    0.70314   0.70577   0.70881   0.71304   0.71713
 Alpha virt. eigenvalues --    0.71901   0.72281   0.72577   0.72795   0.73067
 Alpha virt. eigenvalues --    0.73367   0.74170   0.74185   0.74350   0.75149
 Alpha virt. eigenvalues --    0.75574   0.76142   0.76248   0.76607   0.76750
 Alpha virt. eigenvalues --    0.76986   0.77490   0.77583   0.77946   0.78187
 Alpha virt. eigenvalues --    0.78461   0.78881   0.79305   0.79531   0.79803
 Alpha virt. eigenvalues --    0.79897   0.80450   0.80577   0.81003   0.81604
 Alpha virt. eigenvalues --    0.81687   0.82129   0.82324   0.82682   0.83139
 Alpha virt. eigenvalues --    0.83344   0.83607   0.83945   0.84224   0.84709
 Alpha virt. eigenvalues --    0.84841   0.85148   0.85260   0.85359   0.85758
 Alpha virt. eigenvalues --    0.85841   0.85960   0.86225   0.86738   0.86912
 Alpha virt. eigenvalues --    0.87159   0.87474   0.87941   0.88075   0.88497
 Alpha virt. eigenvalues --    0.88667   0.89040   0.89231   0.89335   0.89989
 Alpha virt. eigenvalues --    0.90454   0.90789   0.91227   0.92289   0.92826
 Alpha virt. eigenvalues --    0.93150   0.94073   0.94348   0.94648   0.95351
 Alpha virt. eigenvalues --    0.96190   0.96620   0.96760   0.96773   0.98314
 Alpha virt. eigenvalues --    0.98847   0.99345   0.99949   1.00503   1.00815
 Alpha virt. eigenvalues --    1.01407   1.01660   1.01945   1.03390   1.04081
 Alpha virt. eigenvalues --    1.04134   1.04439   1.05515   1.05986   1.06183
 Alpha virt. eigenvalues --    1.07030   1.07324   1.07562   1.08436   1.08767
 Alpha virt. eigenvalues --    1.09191   1.09679   1.10203   1.10737   1.11273
 Alpha virt. eigenvalues --    1.11387   1.12480   1.12835   1.13670   1.14456
 Alpha virt. eigenvalues --    1.14778   1.15172   1.15649   1.15887   1.16555
 Alpha virt. eigenvalues --    1.16687   1.17098   1.17634   1.18233   1.18960
 Alpha virt. eigenvalues --    1.19855   1.20325   1.20898   1.21185   1.21716
 Alpha virt. eigenvalues --    1.21862   1.23294   1.23647   1.24008   1.25041
 Alpha virt. eigenvalues --    1.25872   1.27078   1.27492   1.28288   1.28461
 Alpha virt. eigenvalues --    1.29338   1.30203   1.31461   1.32029   1.32325
 Alpha virt. eigenvalues --    1.32705   1.33334   1.34428   1.35206   1.35825
 Alpha virt. eigenvalues --    1.36637   1.38990   1.39853   1.40649   1.41337
 Alpha virt. eigenvalues --    1.41860   1.42453   1.42984   1.43461   1.44726
 Alpha virt. eigenvalues --    1.45117   1.45626   1.47047   1.47596   1.47758
 Alpha virt. eigenvalues --    1.49125   1.50076   1.50879   1.50913   1.51607
 Alpha virt. eigenvalues --    1.53130   1.53369   1.55003   1.56512   1.58248
 Alpha virt. eigenvalues --    1.59542   1.59863   1.60590   1.60714   1.61009
 Alpha virt. eigenvalues --    1.61364   1.61538   1.62162   1.62789   1.63800
 Alpha virt. eigenvalues --    1.64115   1.65251   1.65424   1.65504   1.65669
 Alpha virt. eigenvalues --    1.65870   1.66057   1.66426   1.67079   1.67328
 Alpha virt. eigenvalues --    1.67494   1.68075   1.68761   1.69741   1.69964
 Alpha virt. eigenvalues --    1.70334   1.70572   1.70815   1.71019   1.71359
 Alpha virt. eigenvalues --    1.71620   1.72333   1.72441   1.72985   1.73083
 Alpha virt. eigenvalues --    1.73632   1.73916   1.74205   1.74644   1.75016
 Alpha virt. eigenvalues --    1.75154   1.76032   1.76679   1.76986   1.77376
 Alpha virt. eigenvalues --    1.77826   1.77910   1.78356   1.78950   1.80505
 Alpha virt. eigenvalues --    1.81125   1.81428   1.82149   1.82494   1.83359
 Alpha virt. eigenvalues --    1.83705   1.85010   1.85400   1.85709   1.85882
 Alpha virt. eigenvalues --    1.86109   1.86709   1.86923   1.87281   1.88236
 Alpha virt. eigenvalues --    1.88532   1.88664   1.89018   1.89356   1.89824
 Alpha virt. eigenvalues --    1.90050   1.90399   1.90719   1.91208   1.91726
 Alpha virt. eigenvalues --    1.92365   1.92856   1.93813   1.93835   1.94790
 Alpha virt. eigenvalues --    1.95336   1.96307   1.96440   1.97357   1.98846
 Alpha virt. eigenvalues --    1.99117   1.99764   2.00295   2.01144   2.01847
 Alpha virt. eigenvalues --    2.01976   2.02492   2.02987   2.03407   2.03902
 Alpha virt. eigenvalues --    2.04369   2.04734   2.05597   2.06550   2.06924
 Alpha virt. eigenvalues --    2.07288   2.07631   2.08739   2.09592   2.10447
 Alpha virt. eigenvalues --    2.11371   2.11540   2.11894   2.12369   2.13168
 Alpha virt. eigenvalues --    2.15430   2.16745   2.17322   2.17500   2.18165
 Alpha virt. eigenvalues --    2.18492   2.18924   2.19666   2.20276   2.20816
 Alpha virt. eigenvalues --    2.21564   2.21977   2.22612   2.22941   2.23329
 Alpha virt. eigenvalues --    2.24692   2.24996   2.25948   2.26193   2.26701
 Alpha virt. eigenvalues --    2.26916   2.27789   2.30616   2.30965   2.31157
 Alpha virt. eigenvalues --    2.32013   2.32222   2.32802   2.34085   2.34685
 Alpha virt. eigenvalues --    2.37318   2.38527   2.39061   2.39305   2.41303
 Alpha virt. eigenvalues --    2.42646   2.43670   2.43879   2.44639   2.45504
 Alpha virt. eigenvalues --    2.46499   2.46963   2.47448   2.47779   2.48308
 Alpha virt. eigenvalues --    2.48525   2.49077   2.51856   2.53739   2.54475
 Alpha virt. eigenvalues --    2.56169   2.56405   2.57205   2.59027   2.59190
 Alpha virt. eigenvalues --    2.60045   2.60897   2.61239   2.61579   2.61882
 Alpha virt. eigenvalues --    2.63554   2.63777   2.64280   2.64693   2.65587
 Alpha virt. eigenvalues --    2.66460   2.67786   2.68228   2.68320   2.68802
 Alpha virt. eigenvalues --    2.69001   2.70472   2.70918   2.71304   2.71989
 Alpha virt. eigenvalues --    2.72806   2.73271   2.73537   2.73930   2.75697
 Alpha virt. eigenvalues --    2.75918   2.76262   2.76325   2.76721   2.77616
 Alpha virt. eigenvalues --    2.79136   2.79361   2.79455   2.80154   2.80473
 Alpha virt. eigenvalues --    2.80621   2.81230   2.81663   2.83121   2.83785
 Alpha virt. eigenvalues --    2.84704   2.84776   2.85073   2.85712   2.86699
 Alpha virt. eigenvalues --    2.87144   2.88228   2.88679   2.89382   2.89561
 Alpha virt. eigenvalues --    2.90122   2.91251   2.91457   2.91935   2.92751
 Alpha virt. eigenvalues --    2.93030   2.93543   2.94217   2.94312   2.94600
 Alpha virt. eigenvalues --    2.94677   2.95941   2.96200   2.96405   2.96984
 Alpha virt. eigenvalues --    2.97657   2.98500   2.98890   2.99359   2.99875
 Alpha virt. eigenvalues --    3.00085   3.00810   3.01344   3.02628   3.02978
 Alpha virt. eigenvalues --    3.03559   3.04148   3.04898   3.05568   3.05962
 Alpha virt. eigenvalues --    3.06399   3.07336   3.07671   3.08358   3.08731
 Alpha virt. eigenvalues --    3.09301   3.09762   3.10885   3.11186   3.11752
 Alpha virt. eigenvalues --    3.13265   3.13571   3.16244   3.17825   3.18792
 Alpha virt. eigenvalues --    3.19481   3.20112   3.21378   3.22962   3.23850
 Alpha virt. eigenvalues --    3.24556   3.25746   3.27636   3.29948   3.32495
 Alpha virt. eigenvalues --    3.33538   3.34729   3.35472   3.36703   3.39025
 Alpha virt. eigenvalues --    3.39405   3.39675   3.42448   3.44829   3.45590
 Alpha virt. eigenvalues --    3.46551   3.48297   3.48834   3.50015   3.50598
 Alpha virt. eigenvalues --    3.53262   3.53573   3.54096   3.55937   3.59193
 Alpha virt. eigenvalues --    3.66420   3.67270   3.67719   3.68761   3.69907
 Alpha virt. eigenvalues --    3.71088   3.72175   3.74079   3.75363   3.79730
 Alpha virt. eigenvalues --    3.80133   3.80425   3.81920   3.82318   3.86663
 Alpha virt. eigenvalues --    3.89241   3.92798   3.92870   3.93702   3.93835
 Alpha virt. eigenvalues --    3.94190   3.95155   3.95220   3.96501   3.96619
 Alpha virt. eigenvalues --    3.97734   3.97771   3.99340   3.99547   4.03037
 Alpha virt. eigenvalues --    4.05588   4.08479   4.10909   4.13189   4.13549
 Alpha virt. eigenvalues --    4.15798   4.18393   4.21286   4.24245   4.26050
 Alpha virt. eigenvalues --    4.29341   4.32152   4.32276   4.34392   4.34551
 Alpha virt. eigenvalues --    4.38223   4.38360   4.39136   4.40967   4.41618
 Alpha virt. eigenvalues --    4.57901   4.77763   4.94225   4.95963   4.96633
 Alpha virt. eigenvalues --    5.00161   5.00333   5.12552   5.18328   5.21011
 Alpha virt. eigenvalues --    5.22047   5.24106   5.30417   5.51347   5.52809
 Alpha virt. eigenvalues --    5.72976   6.01177   6.11397  23.69615  23.81995
 Alpha virt. eigenvalues --   23.86878  23.94444  23.97732  23.99332  24.00828
 Alpha virt. eigenvalues --   24.01601  24.02475  24.04647  24.04887  24.05705
 Alpha virt. eigenvalues --   24.07076  24.08457  24.08859  24.13091  24.13382
 Alpha virt. eigenvalues --   24.13512  24.13654  24.13810  24.14220  24.19504
 Alpha virt. eigenvalues --   24.23232  24.24260  24.25076  24.29787  24.31199
 Alpha virt. eigenvalues --   24.31599  35.72064  35.72490  50.00510  50.09655
 Alpha virt. eigenvalues --   50.12616
          Condensed to atoms (all electrons):
 Mulliken charges:
               1
     1  C   -0.254080
     2  C   -0.461244
     3  C   -0.157887
     4  C   -0.481948
     5  C   -0.155435
     6  C    0.554197
     7  O   -0.026536
     8  C    0.483048
     9  C    0.295851
    10  C    0.484277
    11  C   -0.131845
    12  C   -0.345783
    13  C   -0.457562
    14  C   -0.364711
    15  C   -0.085361
    16  C    0.592715
    17  C   -0.156479
    18  C   -0.540882
    19  C   -0.199999
    20  C   -0.438030
    21  N    0.192676
    22  C   -0.303228
    23  C   -0.434571
    24  N    0.200801
    25  C   -0.299844
    26  C   -0.434806
    27  C   -0.592171
    28  H    0.277597
    29  H    0.240280
    30  H    0.262344
    31  H    0.233448
    32  H    0.243622
    33  H    0.241597
    34  H    0.279044
    35  H    0.252548
    36  H    0.196139
    37  H    0.196791
    38  H    0.162651
    39  H    0.147886
    40  H    0.160640
    41  H    0.199992
    42  H    0.193179
    43  H    0.162251
    44  H    0.160623
    45  H    0.149306
    46  C   -0.276086
    47  C   -0.441974
    48  H    0.194218
    49  H    0.187311
    50  H    0.159422
    51  H    0.165403
    52  H    0.150343
    53  C   -0.277797
    54  C   -0.441837
    55  H    0.160390
    56  H    0.145268
    57  H    0.164837
    58  H    0.190447
    59  H    0.188616
    60  H    0.262128
    61  H    0.254231
    62  O   -0.267363
    63  O   -0.073742
    64  H    0.315086
 Sum of Mulliken charges =   1.00000
 Mulliken charges with hydrogens summed into heavy atoms:
               1
     1  C    0.000152
     2  C   -0.461244
     3  C    0.119711
     4  C   -0.241668
     5  C   -0.155435
     6  C    0.554197
     7  O   -0.026536
     8  C    0.483048
     9  C    0.295851
    10  C    0.484277
    11  C    0.130499
    12  C   -0.112335
    13  C   -0.213940
    14  C   -0.123114
    15  C   -0.085361
    16  C    0.592715
    17  C    0.122565
    18  C   -0.540882
    19  C    0.062128
    20  C   -0.185482
    21  N    0.192676
    22  C    0.089702
    23  C    0.036606
    24  N    0.200801
    25  C    0.093328
    26  C    0.037375
    27  C   -0.592171
    46  C    0.105443
    47  C    0.033195
    53  C    0.101265
    54  C    0.028658
    62  O   -0.267363
    63  O    0.241343
 Electronic spatial extent (au):  <R**2>=          83235.2791
 Charge=              1.0000 electrons
 Dipole moment (field-independent basis, Debye):
    X=              1.4293    Y=            -47.3925    Z=             -6.9785  Tot=             47.9249
 Quadrupole moment (field-independent basis, Debye-Ang):
   XX=           -144.9364   YY=            392.5810   ZZ=           -207.5984
   XY=            -31.0645   XZ=             16.5898   YZ=             44.1702
 Traceless Quadrupole moment (field-independent basis, Debye-Ang):
   XX=           -158.2851   YY=            379.2322   ZZ=           -220.9471
   XY=            -31.0645   XZ=             16.5898   YZ=             44.1702
 Octapole moment (field-independent basis, Debye-Ang**2):
  XXX=           -303.4661  YYY=          -2777.3988  ZZZ=           -313.6694  XYY=            189.1505
  XXY=           1288.4208  XXZ=            -37.1288  XZZ=           -172.6886  YZZ=           1769.7513
  YYZ=           -429.3032  XYZ=           -147.9165
 Hexadecapole moment (field-independent basis, Debye-Ang**3):
 XXXX=          -5734.1104 YYYY=           5680.8970 ZZZZ=          -3564.1785 XXXY=           3018.4737
 XXXZ=          -1106.7742 YYYX=           1195.6394 YYYZ=           5550.0451 ZZZX=          -1529.7468
 ZZZY=           2383.9334 XXYY=         -14790.3766 XXZZ=          -1514.0020 YYZZ=         -18024.6419
 XXYZ=            271.9411 YYXZ=            960.3004 ZZXY=           1568.3857
 N-N= 3.336605021552D+03 E-N=-9.950400305735D+03  KE= 1.413583262963D+03
 No NMR shielding tensors so no spin-rotation constants.
 Leave Link  601 at Mon Feb 17 11:47:12 2020, MaxMem=  6710886400 cpu:        10.2
 (Enter /opt/sys/apps/gaussian09/D.01/g09/l9999.exe)

 Test job not archived.
 1\1\GINC-S84P20\SP\RCAM-B3LYP TD-FC\6-311++G(d,p)\C28H31N2O3(1+)\SALVA
 TORE\17-Feb-2020\0\\#p CAM-B3LYP/6-311++G** nosym density=current geom
 =allcheck EmpiricalDispersion=GD3 SCRF=(CPCM, solvent=ethanol) IOP(10/
 74=10) TD=(NSTATES=10,ROOT=1,NONEQ) iop(3/119=0810000000) iop(3/120=08
 10000000)\\cation\\1,1\C,0,1.7246072654,-12.4380193262,0.2969929269\C,
 0,0.498836444,-12.5905128308,-0.4422809144\C,0,-0.1856954262,-11.40496
 49812,-0.8154803923\C,0,2.2234291774,-11.206024779,0.6032280611\C,0,1.
 5586423585,-10.006568453,0.2151405928\C,0,0.3336964716,-10.1738623967,
 -0.4941552844\O,0,-0.395051084,-9.090642649,-0.8768283679\C,0,2.009285
 2423,-8.706379923,0.5090640221\C,0,3.2852739544,-8.5029868042,1.250835
 4\C,0,3.3203305634,-8.0083726335,2.5689868771\C,0,4.5530096159,-7.7674
 412501,3.186009158\C,0,5.742997767,-8.0360750772,2.5197101761\C,0,5.71
 05510222,-8.5323337394,1.2175067263\C,0,4.4900004747,-8.7592613934,0.5
 87843742\C,0,1.2462964571,-7.6020358335,0.0924142024\C,0,0.022426145,-
 7.8243135329,-0.601657896\C,0,-0.7978575099,-6.8053104778,-1.023183082
 1\C,0,-0.4386377996,-5.453388347,-0.7857107252\C,0,0.8036579452,-5.212
 8930527,-0.0995087165\C,0,1.601760025,-6.2401476122,0.3097216712\N,0,-
 1.220814221,-4.4292482405,-1.1970598865\C,0,-2.5173031614,-4.676331475
 8,-1.8522066681\C,0,-3.6468306098,-5.0217270311,-0.8766662837\N,0,0.02
 43732566,-13.814896525,-0.7671872883\C,0,-1.2507003521,-13.9715022179,
 -1.4887529293\C,0,-2.4871769742,-13.8635838358,-0.590619579\C,0,2.0940
 303769,-7.6888499447,3.3720495442\H,0,-1.1262252483,-11.4258662816,-1.
 3430655089\H,0,3.1481186981,-11.1342924626,1.1609610956\H,0,4.56395752
 35,-7.3780072242,4.1961915758\H,0,6.690399615,-7.8568832365,3.01326021
 11\H,0,6.6329837468,-8.7370893047,0.6874589941\H,0,4.4641534989,-9.122
 3424451,-0.4325236484\H,0,-1.7115062517,-7.0773467831,-1.5277971269\H,
 0,2.5325570584,-6.0152936788,0.8138311155\H,0,-2.392910912,-5.46618152
 51,-2.5958185447\H,0,-2.7692763354,-3.7735633315,-2.4080386407\H,0,-4.
 5606349842,-5.2346797239,-1.4369140967\H,0,-3.4019513679,-5.8998591789
 ,-0.275678701\H,0,-3.8477067856,-4.1899024668,-0.1994720459\H,0,-1.224
 7285964,-14.9489489493,-1.9699595803\H,0,-1.292193302,-13.2366582841,-
 2.2949643252\H,0,-3.3900227069,-13.9453774936,-1.200881632\H,0,-2.5031
 442934,-14.6633281426,0.151451393\H,0,-2.5163161336,-12.9077607385,-0.
 0634603794\C,0,-0.8729771409,-3.0255854599,-0.9081661645\C,0,-1.228120
 9883,-2.5806093968,0.513500839\H,0,-1.4078544197,-2.413565776,-1.63387
 33181\H,0,0.1888884094,-2.87338412,-1.1081484023\H,0,-2.3043089595,-2.
 6366409091,0.6853984442\H,0,-0.9119493288,-1.5450022544,0.6615309964\H
 ,0,-0.7297204546,-3.2002914116,1.2620016014\C,0,0.6940563037,-15.04919
 52991,-0.3163412549\C,0,0.3784299444,-15.4289093331,1.1331977668\H,0,-
 0.6854988474,-15.6339354901,1.2622517199\H,0,0.6588529257,-14.63144620
 48,1.8245035778\H,0,0.9355621753,-16.3290441214,1.4047133612\H,0,1.770
 1192736,-14.9457734685,-0.4647365436\H,0,0.3713137825,-15.8447426743,-
 0.9874029129\H,0,1.1246193125,-4.2030191866,0.1027447078\H,0,2.2705923
 917,-13.3078797724,0.6270240504\O,0,2.0182446352,-6.7190558178,4.08874
 08158\O,0,1.0435733925,-8.5362838221,3.3023414234\H,0,1.2432769452,-9.
 3299398676,2.7862740506\\Version=ES64L-G09RevD.01\HF=-1419.2970495\RMS
 D=1.564e-09\Dipole=-0.9205403,-2.0459716,-3.4436381\Quadrupole=-117.68
 11127,281.9498875,-164.2687748,-23.095706,12.3341295,32.8394632\PG=C01
  [X(C28H31N2O3)]\\@


 MODELS ARE TO BE USED, NOT BELIEVED.

    -- PARAPHRASED BY H. THIEL IN "PRINCIPLES OF ECONOMETRICS"
 Job cpu time:       2 days  9 hours  9 minutes  8.5 seconds.
 File lengths (MBytes):  RWF=   2458 Int=      0 D2E=      0 Chk=    332 Scr=      1
 Normal termination of Gaussian 09 at Mon Feb 17 11:47:13 2020.
