 Entering Gaussian System, Link 0=g09
 Initial command:
 /opt/sys/apps/gaussian09/D.01/g09/l1.exe "/tmp/Gau-7389.inp" -scrdir="/tmp/"
 Entering Link 1 = /opt/sys/apps/gaussian09/D.01/g09/l1.exe PID=      7390.
  
 Copyright (c) 1988,1990,1992,1993,1995,1998,2003,2009,2013,
            Gaussian, Inc.  All Rights Reserved.
  
 This is part of the Gaussian(R) 09 program.  It is based on
 the Gaussian(R) 03 system (copyright 2003, Gaussian, Inc.),
 the Gaussian(R) 98 system (copyright 1998, Gaussian, Inc.),
 the Gaussian(R) 94 system (copyright 1995, Gaussian, Inc.),
 the Gaussian 92(TM) system (copyright 1992, Gaussian, Inc.),
 the Gaussian 90(TM) system (copyright 1990, Gaussian, Inc.),
 the Gaussian 88(TM) system (copyright 1988, Gaussian, Inc.),
 the Gaussian 86(TM) system (copyright 1986, Carnegie Mellon
 University), and the Gaussian 82(TM) system (copyright 1983,
 Carnegie Mellon University). Gaussian is a federally registered
 trademark of Gaussian, Inc.
  
 This software contains proprietary and confidential information,
 including trade secrets, belonging to Gaussian, Inc.
  
 This software is provided under written license and may be
 used, copied, transmitted, or stored only in accord with that
 written license.
  
 The following legend is applicable only to US Government
 contracts under FAR:
  
                    RESTRICTED RIGHTS LEGEND
  
 Use, reproduction and disclosure by the US Government is
 subject to restrictions as set forth in subparagraphs (a)
 and (c) of the Commercial Computer Software - Restricted
 Rights clause in FAR 52.227-19.
  
 Gaussian, Inc.
 340 Quinnipiac St., Bldg. 40, Wallingford CT 06492
  
  
 ---------------------------------------------------------------
 Warning -- This program may not be used in any manner that
 competes with the business of Gaussian, Inc. or will provide
 assistance to any competitor of Gaussian, Inc.  The licensee
 of this program is prohibited from giving any competitor of
 Gaussian, Inc. access to this program.  By using this program,
 the user acknowledges that Gaussian, Inc. is engaged in the
 business of creating and licensing software in the field of
 computational chemistry and represents and warrants to the
 licensee that it is not a competitor of Gaussian, Inc. and that
 it will not use this program in any manner prohibited above.
 ---------------------------------------------------------------
  

 Cite this work as:
 Gaussian 09, Revision D.01,
 M. J. Frisch, G. W. Trucks, H. B. Schlegel, G. E. Scuseria, 
 M. A. Robb, J. R. Cheeseman, G. Scalmani, V. Barone, B. Mennucci, 
 G. A. Petersson, H. Nakatsuji, M. Caricato, X. Li, H. P. Hratchian, 
 A. F. Izmaylov, J. Bloino, G. Zheng, J. L. Sonnenberg, M. Hada, 
 M. Ehara, K. Toyota, R. Fukuda, J. Hasegawa, M. Ishida, T. Nakajima, 
 Y. Honda, O. Kitao, H. Nakai, T. Vreven, J. A. Montgomery, Jr., 
 J. E. Peralta, F. Ogliaro, M. Bearpark, J. J. Heyd, E. Brothers, 
 K. N. Kudin, V. N. Staroverov, T. Keith, R. Kobayashi, J. Normand, 
 K. Raghavachari, A. Rendell, J. C. Burant, S. S. Iyengar, J. Tomasi, 
 M. Cossi, N. Rega, J. M. Millam, M. Klene, J. E. Knox, J. B. Cross, 
 V. Bakken, C. Adamo, J. Jaramillo, R. Gomperts, R. E. Stratmann, 
 O. Yazyev, A. J. Austin, R. Cammi, C. Pomelli, J. W. Ochterski, 
 R. L. Martin, K. Morokuma, V. G. Zakrzewski, G. A. Voth, 
 P. Salvador, J. J. Dannenberg, S. Dapprich, A. D. Daniels, 
 O. Farkas, J. B. Foresman, J. V. Ortiz, J. Cioslowski, 
 and D. J. Fox, Gaussian, Inc., Wallingford CT, 2013.
 
 ******************************************
 Gaussian 09:  ES64L-G09RevD.01 24-Apr-2013
                 1-May-2020 
 ******************************************
 %NProcShared=24
 Will use up to   24 processors via shared memory.
 %oldChk=checkpoint.chk
 %Chk=checkpointES.chk
 %Mem=50GB
 Copying data from "checkpoint.chk" to current chk file "checkpointES.chk".
 ----------------------------------------------------------------------
 #p CAM-B3LYP/6-311++G** geom=allcheck nosym TD=(NSTATES=30,ROOT=1) den
 sity=current iop(3/119=0810000000) iop(3/120=0810000000)
 ----------------------------------------------------------------------
 1/29=7,30=1,38=1/1;
 2/12=2,15=1,40=1/2;
 3/5=4,6=6,7=1111,11=9,14=-4,16=1,25=1,30=1,71=1,74=-40,119=810000000,120=810000000/1,2,8,3;
 4//1;
 5/5=2,38=5/2;
 8/6=1,10=2,107=1,108=30/1;
 9/8=1,15=1,41=30,42=1,70=2/14;
 10/5=4,13=10,31=1/2;
 6/7=2,8=2,9=2,10=2,22=-1/1;
 99/5=1,9=1/99;
 Leave Link    1 at Fri May  1 17:30:19 2020, MaxMem=  6710886400 cpu:        22.7
 (Enter /opt/sys/apps/gaussian09/D.01/g09/l101.exe)
 Structure from the checkpoint file:  "checkpointES.chk"
 ------
 cation
 ------
 Charge =  1 Multiplicity = 1
 Redundant internal coordinates found in file.
 C,0,1.7035122061,-12.4437559715,0.3146783332
 C,0,0.4715727267,-12.5940596257,-0.4122686977
 C,0,-0.2155308166,-11.4056237851,-0.7652731242
 C,0,2.2076606872,-11.2115764426,0.6197067717
 C,0,1.5448308529,-10.0080687667,0.2435807775
 C,0,0.3121279239,-10.1736279833,-0.4491344015
 O,0,-0.4198818869,-9.0905316128,-0.8233686444
 C,0,2.0026726879,-8.7051645665,0.5397018111
 C,0,3.2854028298,-8.5013198312,1.2753825237
 C,0,3.3224604964,-7.97701837,2.5832367938
 C,0,4.5547977271,-7.7265031879,3.1956872257
 C,0,5.7448906263,-8.0172786699,2.5381382788
 C,0,5.7132152816,-8.5430683668,1.2481034661
 C,0,4.4929662843,-8.7780752379,0.6210399311
 C,0,1.237557739,-7.6022211109,0.1200069975
 C,0,0.0059105886,-7.8238270572,-0.5631722416
 C,0,-0.8133909378,-6.8049494644,-0.9885356997
 C,0,-0.4476567042,-5.4516972449,-0.7683790216
 C,0,0.8011773103,-5.2118186613,-0.094905927
 C,0,1.5977120468,-6.2370005166,0.319415367
 N,0,-1.2276823464,-4.4267442112,-1.1838526015
 C,0,-2.5163000153,-4.6709889954,-1.8582924731
 C,0,-3.6816766527,-4.9756048141,-0.9112758204
 N,0,-0.0046554665,-13.8185585143,-0.7460016538
 C,0,-1.292074944,-13.9710017883,-1.4483653575
 C,0,-2.5250454155,-13.8868141832,-0.5423195226
 C,0,2.0837708657,-7.6221305569,3.3647101701
 H,0,-1.1628562533,-11.4233163595,-1.2810931667
 H,0,3.1410199628,-11.1446849609,1.1643491034
 H,0,4.564924223,-7.3028891909,4.1926383703
 H,0,6.6925244641,-7.8277066281,3.0277867251
 H,0,6.6364102746,-8.7599816583,0.7238317479
 H,0,4.4719961624,-9.1559039473,-0.3947977568
 H,0,-1.7343225804,-7.0772765155,-1.4798992023
 H,0,2.529192986,-6.0087232549,0.8199843745
 H,0,-2.384903865,-5.4792735882,-2.5813118937
 H,0,-2.7392946281,-3.7780582966,-2.4429940217
 H,0,-4.5851156253,-5.1678061538,-1.4956147572
 H,0,-3.4843459983,-5.8534765327,-0.2927928317
 H,0,-3.885096162,-4.1336389448,-0.2474760604
 H,0,-1.2660281923,-14.9411248222,-1.9454222805
 H,0,-1.3473642726,-13.2256155023,-2.2453860376
 H,0,-3.4298081483,-13.9877492097,-1.1471187228
 H,0,-2.5272685271,-14.6865653636,0.2001469773
 H,0,-2.5773574803,-12.9335169548,-0.0123983945
 C,0,-0.8551361299,-3.0185939471,-0.9386370046
 C,0,-1.2016907881,-2.5039497942,0.4616462271
 H,0,-1.3746764696,-2.4243612341,-1.6909386307
 H,0,0.209975328,-2.8956892332,-1.1432698746
 H,0,-2.2773686489,-2.5367816755,0.6434151775
 H,0,-0.8771051939,-1.4647544279,0.5580227742
 H,0,-0.7084685308,-3.0860397287,1.2428718551
 C,0,0.7219628102,-15.0550400254,-0.4003881612
 C,0,0.4470957795,-15.5835013593,1.0107826281
 H,0,-0.6044131613,-15.8455405171,1.141091713
 H,0,0.7099871249,-14.8505218379,1.7766884393
 H,0,1.0404173962,-16.4845373986,1.1860435623
 H,0,1.7903286446,-14.8885586248,-0.5492442242
 H,0,0.4315288397,-15.8041563671,-1.1381320422
 H,0,1.1242746125,-4.2012268962,0.1009362044
 H,0,2.2481362995,-13.3164159522,0.6411025472
 O,0,1.9352741526,-6.5610454786,3.9028702961
 O,0,1.1189144364,-8.5750571487,3.4503145524
 H,0,1.4261034637,-9.4132509324,3.0824885274
 Recover connectivity data from disk.
 NAtoms=     64 NQM=       64 NQMF=       0 NMMI=      0 NMMIF=      0
                NMic=       0 NMicF=      0.
                    Isotopes and Nuclear Properties:
 (Nuclear quadrupole moments (NQMom) in fm**2, nuclear magnetic moments (NMagM)
  in nuclear magnetons)

  Atom         1           2           3           4           5           6           7           8           9          10
 IAtWgt=          12          12          12          12          12          12          16          12          12          12
 AtmWgt=  12.0000000  12.0000000  12.0000000  12.0000000  12.0000000  12.0000000  15.9949146  12.0000000  12.0000000  12.0000000
 NucSpn=           0           0           0           0           0           0           0           0           0           0
 AtZEff=  -3.6000000  -3.6000000  -3.6000000  -3.6000000  -3.6000000  -3.6000000  -5.6000000  -3.6000000  -3.6000000  -3.6000000
 NQMom=    0.0000000   0.0000000   0.0000000   0.0000000   0.0000000   0.0000000   0.0000000   0.0000000   0.0000000   0.0000000
 NMagM=    0.0000000   0.0000000   0.0000000   0.0000000   0.0000000   0.0000000   0.0000000   0.0000000   0.0000000   0.0000000
 AtZNuc=   6.0000000   6.0000000   6.0000000   6.0000000   6.0000000   6.0000000   8.0000000   6.0000000   6.0000000   6.0000000

  Atom        11          12          13          14          15          16          17          18          19          20
 IAtWgt=          12          12          12          12          12          12          12          12          12          12
 AtmWgt=  12.0000000  12.0000000  12.0000000  12.0000000  12.0000000  12.0000000  12.0000000  12.0000000  12.0000000  12.0000000
 NucSpn=           0           0           0           0           0           0           0           0           0           0
 AtZEff=  -3.6000000  -3.6000000  -3.6000000  -3.6000000  -3.6000000  -3.6000000  -3.6000000  -3.6000000  -3.6000000  -3.6000000
 NQMom=    0.0000000   0.0000000   0.0000000   0.0000000   0.0000000   0.0000000   0.0000000   0.0000000   0.0000000   0.0000000
 NMagM=    0.0000000   0.0000000   0.0000000   0.0000000   0.0000000   0.0000000   0.0000000   0.0000000   0.0000000   0.0000000
 AtZNuc=   6.0000000   6.0000000   6.0000000   6.0000000   6.0000000   6.0000000   6.0000000   6.0000000   6.0000000   6.0000000

  Atom        21          22          23          24          25          26          27          28          29          30
 IAtWgt=          14          12          12          14          12          12          12           1           1           1
 AtmWgt=  14.0030740  12.0000000  12.0000000  14.0030740  12.0000000  12.0000000  12.0000000   1.0078250   1.0078250   1.0078250
 NucSpn=           2           0           0           2           0           0           0           1           1           1
 AtZEff=  -4.5500000  -3.6000000  -3.6000000  -4.5500000  -3.6000000  -3.6000000  -3.6000000  -1.0000000  -1.0000000  -1.0000000
 NQMom=    2.0440000   0.0000000   0.0000000   2.0440000   0.0000000   0.0000000   0.0000000   0.0000000   0.0000000   0.0000000
 NMagM=    0.4037610   0.0000000   0.0000000   0.4037610   0.0000000   0.0000000   0.0000000   2.7928460   2.7928460   2.7928460
 AtZNuc=   7.0000000   6.0000000   6.0000000   7.0000000   6.0000000   6.0000000   6.0000000   1.0000000   1.0000000   1.0000000

  Atom        31          32          33          34          35          36          37          38          39          40
 IAtWgt=           1           1           1           1           1           1           1           1           1           1
 AtmWgt=   1.0078250   1.0078250   1.0078250   1.0078250   1.0078250   1.0078250   1.0078250   1.0078250   1.0078250   1.0078250
 NucSpn=           1           1           1           1           1           1           1           1           1           1
 AtZEff=  -1.0000000  -1.0000000  -1.0000000  -1.0000000  -1.0000000  -1.0000000  -1.0000000  -1.0000000  -1.0000000  -1.0000000
 NQMom=    0.0000000   0.0000000   0.0000000   0.0000000   0.0000000   0.0000000   0.0000000   0.0000000   0.0000000   0.0000000
 NMagM=    2.7928460   2.7928460   2.7928460   2.7928460   2.7928460   2.7928460   2.7928460   2.7928460   2.7928460   2.7928460
 AtZNuc=   1.0000000   1.0000000   1.0000000   1.0000000   1.0000000   1.0000000   1.0000000   1.0000000   1.0000000   1.0000000

  Atom        41          42          43          44          45          46          47          48          49          50
 IAtWgt=           1           1           1           1           1          12          12           1           1           1
 AtmWgt=   1.0078250   1.0078250   1.0078250   1.0078250   1.0078250  12.0000000  12.0000000   1.0078250   1.0078250   1.0078250
 NucSpn=           1           1           1           1           1           0           0           1           1           1
 AtZEff=  -1.0000000  -1.0000000  -1.0000000  -1.0000000  -1.0000000  -3.6000000  -3.6000000  -1.0000000  -1.0000000  -1.0000000
 NQMom=    0.0000000   0.0000000   0.0000000   0.0000000   0.0000000   0.0000000   0.0000000   0.0000000   0.0000000   0.0000000
 NMagM=    2.7928460   2.7928460   2.7928460   2.7928460   2.7928460   0.0000000   0.0000000   2.7928460   2.7928460   2.7928460
 AtZNuc=   1.0000000   1.0000000   1.0000000   1.0000000   1.0000000   6.0000000   6.0000000   1.0000000   1.0000000   1.0000000

  Atom        51          52          53          54          55          56          57          58          59          60
 IAtWgt=           1           1          12          12           1           1           1           1           1           1
 AtmWgt=   1.0078250   1.0078250  12.0000000  12.0000000   1.0078250   1.0078250   1.0078250   1.0078250   1.0078250   1.0078250
 NucSpn=           1           1           0           0           1           1           1           1           1           1
 AtZEff=  -1.0000000  -1.0000000  -3.6000000  -3.6000000  -1.0000000  -1.0000000  -1.0000000  -1.0000000  -1.0000000  -1.0000000
 NQMom=    0.0000000   0.0000000   0.0000000   0.0000000   0.0000000   0.0000000   0.0000000   0.0000000   0.0000000   0.0000000
 NMagM=    2.7928460   2.7928460   0.0000000   0.0000000   2.7928460   2.7928460   2.7928460   2.7928460   2.7928460   2.7928460
 AtZNuc=   1.0000000   1.0000000   6.0000000   6.0000000   1.0000000   1.0000000   1.0000000   1.0000000   1.0000000   1.0000000

  Atom        61          62          63          64
 IAtWgt=           1          16          16           1
 AtmWgt=   1.0078250  15.9949146  15.9949146   1.0078250
 NucSpn=           1           0           0           1
 AtZEff=  -1.0000000  -5.6000000  -5.6000000  -1.0000000
 NQMom=    0.0000000   0.0000000   0.0000000   0.0000000
 NMagM=    2.7928460   0.0000000   0.0000000   2.7928460
 AtZNuc=   1.0000000   8.0000000   8.0000000   1.0000000
 Leave Link  101 at Fri May  1 17:30:20 2020, MaxMem=  6710886400 cpu:         6.9
 (Enter /opt/sys/apps/gaussian09/D.01/g09/l202.exe)
 Symmetry turned off by external request.
 Stoichiometry    C28H31N2O3(1+)
 Framework group  C1[X(C28H31N2O3)]
 Deg. of freedom   186
 Full point group                 C1      NOp   1
                          Input orientation:                          
 ---------------------------------------------------------------------
 Center     Atomic      Atomic             Coordinates (Angstroms)
 Number     Number       Type             X           Y           Z
 ---------------------------------------------------------------------
      1          6           0        1.703512  -12.443756    0.314678
      2          6           0        0.471573  -12.594060   -0.412269
      3          6           0       -0.215531  -11.405624   -0.765273
      4          6           0        2.207661  -11.211576    0.619707
      5          6           0        1.544831  -10.008069    0.243581
      6          6           0        0.312128  -10.173628   -0.449134
      7          8           0       -0.419882   -9.090532   -0.823369
      8          6           0        2.002673   -8.705165    0.539702
      9          6           0        3.285403   -8.501320    1.275383
     10          6           0        3.322460   -7.977018    2.583237
     11          6           0        4.554798   -7.726503    3.195687
     12          6           0        5.744891   -8.017279    2.538138
     13          6           0        5.713215   -8.543068    1.248103
     14          6           0        4.492966   -8.778075    0.621040
     15          6           0        1.237558   -7.602221    0.120007
     16          6           0        0.005911   -7.823827   -0.563172
     17          6           0       -0.813391   -6.804949   -0.988536
     18          6           0       -0.447657   -5.451697   -0.768379
     19          6           0        0.801177   -5.211819   -0.094906
     20          6           0        1.597712   -6.237001    0.319415
     21          7           0       -1.227682   -4.426744   -1.183853
     22          6           0       -2.516300   -4.670989   -1.858292
     23          6           0       -3.681677   -4.975605   -0.911276
     24          7           0       -0.004655  -13.818559   -0.746002
     25          6           0       -1.292075  -13.971002   -1.448365
     26          6           0       -2.525045  -13.886814   -0.542320
     27          6           0        2.083771   -7.622131    3.364710
     28          1           0       -1.162856  -11.423316   -1.281093
     29          1           0        3.141020  -11.144685    1.164349
     30          1           0        4.564924   -7.302889    4.192638
     31          1           0        6.692524   -7.827707    3.027787
     32          1           0        6.636410   -8.759982    0.723832
     33          1           0        4.471996   -9.155904   -0.394798
     34          1           0       -1.734323   -7.077277   -1.479899
     35          1           0        2.529193   -6.008723    0.819984
     36          1           0       -2.384904   -5.479274   -2.581312
     37          1           0       -2.739295   -3.778058   -2.442994
     38          1           0       -4.585116   -5.167806   -1.495615
     39          1           0       -3.484346   -5.853477   -0.292793
     40          1           0       -3.885096   -4.133639   -0.247476
     41          1           0       -1.266028  -14.941125   -1.945422
     42          1           0       -1.347364  -13.225616   -2.245386
     43          1           0       -3.429808  -13.987749   -1.147119
     44          1           0       -2.527269  -14.686565    0.200147
     45          1           0       -2.577357  -12.933517   -0.012398
     46          6           0       -0.855136   -3.018594   -0.938637
     47          6           0       -1.201691   -2.503950    0.461646
     48          1           0       -1.374676   -2.424361   -1.690939
     49          1           0        0.209975   -2.895689   -1.143270
     50          1           0       -2.277369   -2.536782    0.643415
     51          1           0       -0.877105   -1.464754    0.558023
     52          1           0       -0.708469   -3.086040    1.242872
     53          6           0        0.721963  -15.055040   -0.400388
     54          6           0        0.447096  -15.583501    1.010783
     55          1           0       -0.604413  -15.845541    1.141092
     56          1           0        0.709987  -14.850522    1.776688
     57          1           0        1.040417  -16.484537    1.186044
     58          1           0        1.790329  -14.888559   -0.549244
     59          1           0        0.431529  -15.804156   -1.138132
     60          1           0        1.124275   -4.201227    0.100936
     61          1           0        2.248136  -13.316416    0.641103
     62          8           0        1.935274   -6.561045    3.902870
     63          8           0        1.118914   -8.575057    3.450315
     64          1           0        1.426103   -9.413251    3.082489
 ---------------------------------------------------------------------
 Rotational constants (GHZ):      0.1515520      0.0865825      0.0612607
 Leave Link  202 at Fri May  1 17:30:20 2020, MaxMem=  6710886400 cpu:         0.2
 (Enter /opt/sys/apps/gaussian09/D.01/g09/l301.exe)
 Standard basis: 6-311++G(d,p) (5D, 7F)
 Ernie: Thresh=  0.10000D-02 Tol=  0.10000D-05 Strict=F.
   943 basis functions,  1467 primitive gaussians,   976 cartesian basis functions
   118 alpha electrons      118 beta electrons
       nuclear repulsion energy      3328.1993772807 Hartrees.
 IExCor=20419 DFT=T Ex+Corr=CAM-B3LYP ExCW=0 ScaHFX=  1.000000
 ScaDFX=  1.000000  1.000000  1.000000  0.810000 ScalE2=  1.000000  1.000000
 IRadAn=      0 IRanWt=     -1 IRanGd=            0 ICorTp=0 IEmpDi=  4
  HFx wShort=  0.000000 wLong=  0.330000 cFull=  0.190000 cShort=  0.000000 cLong=  0.810000
  DFx wShort=  0.000000 wLong=  0.330000 cFull=  0.190000 cShort=  0.000000 cLong=  0.810000
 NAtoms=   64 NActive=   64 NUniq=   64 SFac= 1.00D+00 NAtFMM=   60 NAOKFM=T Big=T
 Integral buffers will be    131072 words long.
 Raffenetti 1 integral format.
 Two-electron integral symmetry is turned off.
 Leave Link  301 at Fri May  1 17:30:20 2020, MaxMem=  6710886400 cpu:         1.4
 (Enter /opt/sys/apps/gaussian09/D.01/g09/l302.exe)
 NPDir=0 NMtPBC=     1 NCelOv=     1 NCel=       1 NClECP=     1 NCelD=      1
         NCelK=      1 NCelE2=     1 NClLst=     1 CellRange=     0.0.
 One-electron integrals computed using PRISM.
 NBasis=   943 RedAO= T EigKep=  1.11D-06  NBF=   943
 NBsUse=   929 1.00D-06 EigRej=  8.12D-07 NBFU=   929
 Precomputing XC quadrature grid using
 IXCGrd= 4 IRadAn=           0 IRanWt=          -1 IRanGd=           0 AccXCQ= 0.00D+00.
 Generated NRdTot=       0 NPtTot=           0 NUsed=           0 NTot=          32
 NSgBfM=   929   929   933   934   934 MxSgAt=    64 MxSgA2=    64.
 Leave Link  302 at Fri May  1 17:30:23 2020, MaxMem=  6710886400 cpu:        52.0
 (Enter /opt/sys/apps/gaussian09/D.01/g09/l308.exe)
 Leave Link  308 at Fri May  1 17:30:23 2020, MaxMem=  6710886400 cpu:         5.6
 (Enter /opt/sys/apps/gaussian09/D.01/g09/l303.exe)
 DipDrv:  MaxL=1.
 Leave Link  303 at Fri May  1 17:30:24 2020, MaxMem=  6710886400 cpu:         4.5
 (Enter /opt/sys/apps/gaussian09/D.01/g09/l401.exe)
 ExpMin= 3.60D-02 ExpMax= 8.59D+03 ExpMxC= 1.30D+03 IAcc=3 IRadAn=         5 AccDes= 0.00D+00
 Harris functional with IExCor=20419 and IRadAn=       5 diagonalized for initial guess.
 HarFok:  IExCor=20419 AccDes= 0.00D+00 IRadAn=         5 IDoV= 1 UseB2=F ITyADJ=14
 ICtDFT=  3500011 ScaDFX=  1.000000  1.000000  1.000000  1.000000
 FoFCou: FMM=F IPFlag=           0 FMFlag=      100000 FMFlg1=        2001
         NFxFlg=           0 DoJE=T BraDBF=F KetDBF=T FulRan=T
         wScrn=  0.000000 ICntrl=     500 IOpCl=  0 I1Cent=   200000004 NGrid=           0
         NMat0=    1 NMatS0=      1 NMatT0=    0 NMatD0=    1 NMtDS0=    0 NMtDT0=    0
 Symmetry not used in FoFCou.
 Harris En= -1349.42074498410    
 JPrj=0 DoOrth=F DoCkMO=F.
 Leave Link  401 at Fri May  1 17:30:32 2020, MaxMem=  6710886400 cpu:       168.3
 (Enter /opt/sys/apps/gaussian09/D.01/g09/l502.exe)
 Closed shell SCF:
 Using DIIS extrapolation, IDIIS=  1040.
 Two-electron integral symmetry not used.
 IVT=     2905686 IEndB=     2905686 NGot=  6710886400 MDV=  6708950907
 LenX=  6708950907 LenY=  6707997355
 Requested convergence on RMS density matrix=1.00D-08 within 128 cycles.
 Requested convergence on MAX density matrix=1.00D-06.
 Requested convergence on             energy=1.00D-06.
 No special actions if energy rises.
 Fock matrices will be formed incrementally for  20 cycles.

 Cycle   1  Pass 1  IDiag  1:
 FoFJK:  IHMeth= 1 ICntrl=       0 DoSepK=T KAlg= 0 I1Cent=   0 FoldK=F
 IRaf=         1 NMat=   1 IRICut=       1 DoRegI=T DoRafI=F ISym2E= 0.
 FoFCou: FMM=T IPFlag=           0 FMFlag=      100000 FMFlg1=        2001
         NFxFlg=           0 DoJE=T BraDBF=F KetDBF=F FulRan=T
         wScrn=  0.000000 ICntrl=     500 IOpCl=  0 I1Cent=           0 NGrid=           0
         NMat0=    1 NMatS0=      1 NMatT0=    0 NMatD0=    1 NMtDS0=    0 NMtDT0=    0
 Symmetry not used in FoFCou.
 FMM levels:  10  Number of levels for PrismC:   9
 E= -1418.60949275814    
 DIIS: error= 6.58D-02 at cycle   1 NSaved=   1.
 NSaved= 1 IEnMin= 1 EnMin= -1418.60949275814     IErMin= 1 ErrMin= 6.58D-02
 ErrMax= 6.58D-02  0.00D+00 EMaxC= 1.00D-01 BMatC= 2.59D+00 BMatP= 2.59D+00
 IDIUse=3 WtCom= 3.42D-01 WtEn= 6.58D-01
 Coeff-Com:  0.100D+01
 Coeff-En:   0.100D+01
 Coeff:      0.100D+01
 Gap=     0.303 Goal=   None    Shift=    0.000
 GapD=    0.303 DampG=1.000 DampE=0.500 DampFc=0.5000 IDamp=-1.
 Damping current iteration by 5.00D-01
 RMSDP=8.16D-03 MaxDP=5.56D-01              OVMax= 1.69D-01

 Cycle   2  Pass 1  IDiag  1:
 RMSU=  4.05D-03    CP:  1.02D+00
 E= -1418.88338932666     Delta-E=       -0.273896568520 Rises=F Damp=T
 DIIS: error= 2.90D-02 at cycle   2 NSaved=   2.
 NSaved= 2 IEnMin= 2 EnMin= -1418.88338932666     IErMin= 2 ErrMin= 2.90D-02
 ErrMax= 2.90D-02  0.00D+00 EMaxC= 1.00D-01 BMatC= 5.10D-01 BMatP= 2.59D+00
 IDIUse=3 WtCom= 7.10D-01 WtEn= 2.90D-01
 Coeff-Com: -0.497D+00 0.150D+01
 Coeff-En:   0.000D+00 0.100D+01
 Coeff:     -0.353D+00 0.135D+01
 Gap=     0.257 Goal=   None    Shift=    0.000
 RMSDP=6.46D-03 MaxDP=8.07D-01 DE=-2.74D-01 OVMax= 1.41D-01

 Cycle   3  Pass 1  IDiag  1:
 RMSU=  6.19D-03    CP:  1.03D+00  1.43D+00
 E= -1419.10330162174     Delta-E=       -0.219912295077 Rises=F Damp=F
 DIIS: error= 1.07D-02 at cycle   3 NSaved=   3.
 NSaved= 3 IEnMin= 3 EnMin= -1419.10330162174     IErMin= 3 ErrMin= 1.07D-02
 ErrMax= 1.07D-02  0.00D+00 EMaxC= 1.00D-01 BMatC= 1.07D-01 BMatP= 5.10D-01
 IDIUse=3 WtCom= 8.93D-01 WtEn= 1.07D-01
 Coeff-Com: -0.290D+00 0.635D+00 0.655D+00
 Coeff-En:   0.000D+00 0.000D+00 0.100D+01
 Coeff:     -0.259D+00 0.567D+00 0.692D+00
 Gap=     0.245 Goal=   None    Shift=    0.000
 RMSDP=2.67D-03 MaxDP=3.49D-01 DE=-2.20D-01 OVMax= 5.01D-02

 Cycle   4  Pass 1  IDiag  1:
 RMSU=  1.26D-03    CP:  9.79D-01  1.58D+00  7.48D-01
 E= -1419.17978879873     Delta-E=       -0.076487176985 Rises=F Damp=F
 DIIS: error= 2.88D-03 at cycle   4 NSaved=   4.
 NSaved= 4 IEnMin= 4 EnMin= -1419.17978879873     IErMin= 4 ErrMin= 2.88D-03
 ErrMax= 2.88D-03  0.00D+00 EMaxC= 1.00D-01 BMatC= 6.77D-03 BMatP= 1.07D-01
 IDIUse=3 WtCom= 9.71D-01 WtEn= 2.88D-02
 Coeff-Com: -0.103D+00 0.220D+00 0.333D+00 0.550D+00
 Coeff-En:   0.000D+00 0.000D+00 0.000D+00 0.100D+01
 Coeff:     -0.996D-01 0.213D+00 0.323D+00 0.563D+00
 Gap=     0.238 Goal=   None    Shift=    0.000
 RMSDP=5.84D-04 MaxDP=6.81D-02 DE=-7.65D-02 OVMax= 8.67D-03

 Cycle   5  Pass 1  IDiag  1:
 RMSU=  3.66D-04    CP:  9.87D-01  1.61D+00  7.91D-01  7.91D-01
 E= -1419.18449715159     Delta-E=       -0.004708352863 Rises=F Damp=F
 DIIS: error= 5.11D-04 at cycle   5 NSaved=   5.
 NSaved= 5 IEnMin= 5 EnMin= -1419.18449715159     IErMin= 5 ErrMin= 5.11D-04
 ErrMax= 5.11D-04  0.00D+00 EMaxC= 1.00D-01 BMatC= 1.40D-04 BMatP= 6.77D-03
 IDIUse=3 WtCom= 9.95D-01 WtEn= 5.11D-03
 Coeff-Com:  0.173D-01-0.386D-01-0.143D-01 0.862D-01 0.949D+00
 Coeff-En:   0.000D+00 0.000D+00 0.000D+00 0.000D+00 0.100D+01
 Coeff:      0.172D-01-0.384D-01-0.143D-01 0.858D-01 0.950D+00
 Gap=     0.241 Goal=   None    Shift=    0.000
 RMSDP=3.31D-04 MaxDP=7.19D-02 DE=-4.71D-03 OVMax= 5.60D-03

 Cycle   6  Pass 1  IDiag  1:
 RMSU=  1.61D-04    CP:  9.81D-01  1.61D+00  8.13D-01  9.14D-01  1.12D+00
 E= -1419.18473730881     Delta-E=       -0.000240157218 Rises=F Damp=F
 DIIS: error= 1.73D-04 at cycle   6 NSaved=   6.
 NSaved= 6 IEnMin= 6 EnMin= -1419.18473730881     IErMin= 6 ErrMin= 1.73D-04
 ErrMax= 1.73D-04  0.00D+00 EMaxC= 1.00D-01 BMatC= 5.17D-05 BMatP= 1.40D-04
 IDIUse=3 WtCom= 9.98D-01 WtEn= 1.73D-03
 Coeff-Com:  0.198D-01-0.430D-01-0.458D-01-0.385D-01 0.444D+00 0.664D+00
 Coeff-En:   0.000D+00 0.000D+00 0.000D+00 0.000D+00 0.000D+00 0.100D+01
 Coeff:      0.198D-01-0.430D-01-0.457D-01-0.384D-01 0.443D+00 0.664D+00
 Gap=     0.241 Goal=   None    Shift=    0.000
 RMSDP=8.04D-05 MaxDP=1.07D-02 DE=-2.40D-04 OVMax= 2.11D-03

 Cycle   7  Pass 1  IDiag  1:
 RMSU=  5.78D-05    CP:  9.79D-01  1.62D+00  8.15D-01  9.28D-01  1.21D+00
                    CP:  1.03D+00
 E= -1419.18479679465     Delta-E=       -0.000059485847 Rises=F Damp=F
 DIIS: error= 1.01D-04 at cycle   7 NSaved=   7.
 NSaved= 7 IEnMin= 7 EnMin= -1419.18479679465     IErMin= 7 ErrMin= 1.01D-04
 ErrMax= 1.01D-04  0.00D+00 EMaxC= 1.00D-01 BMatC= 4.21D-06 BMatP= 5.17D-05
 IDIUse=3 WtCom= 9.99D-01 WtEn= 1.01D-03
 Coeff-Com:  0.392D-02-0.829D-02-0.128D-01-0.275D-01 0.119D-01 0.202D+00
 Coeff-Com:  0.831D+00
 Coeff-En:   0.000D+00 0.000D+00 0.000D+00 0.000D+00 0.000D+00 0.000D+00
 Coeff-En:   0.100D+01
 Coeff:      0.391D-02-0.829D-02-0.128D-01-0.274D-01 0.119D-01 0.202D+00
 Coeff:      0.831D+00
 Gap=     0.242 Goal=   None    Shift=    0.000
 RMSDP=2.66D-05 MaxDP=3.17D-03 DE=-5.95D-05 OVMax= 1.15D-03

 Cycle   8  Pass 1  IDiag  1:
 RMSU=  1.80D-05    CP:  9.79D-01  1.62D+00  8.14D-01  9.30D-01  1.25D+00
                    CP:  1.09D+00  9.49D-01
 E= -1419.18480508484     Delta-E=       -0.000008290183 Rises=F Damp=F
 DIIS: error= 3.57D-05 at cycle   8 NSaved=   8.
 NSaved= 8 IEnMin= 8 EnMin= -1419.18480508484     IErMin= 8 ErrMin= 3.57D-05
 ErrMax= 3.57D-05  0.00D+00 EMaxC= 1.00D-01 BMatC= 9.18D-07 BMatP= 4.21D-06
 IDIUse=1 WtCom= 1.00D+00 WtEn= 0.00D+00
 Coeff-Com: -0.267D-02 0.585D-02 0.495D-02-0.318D-02-0.766D-01-0.503D-01
 Coeff-Com:  0.305D+00 0.817D+00
 Coeff:     -0.267D-02 0.585D-02 0.495D-02-0.318D-02-0.766D-01-0.503D-01
 Coeff:      0.305D+00 0.817D+00
 Gap=     0.242 Goal=   None    Shift=    0.000
 RMSDP=1.29D-05 MaxDP=1.67D-03 DE=-8.29D-06 OVMax= 5.24D-04

 Cycle   9  Pass 1  IDiag  1:
 RMSU=  7.92D-06    CP:  9.79D-01  1.62D+00  8.14D-01  9.31D-01  1.24D+00
                    CP:  1.12D+00  1.07D+00  1.24D+00
 E= -1419.18480675654     Delta-E=       -0.000001671699 Rises=F Damp=F
 DIIS: error= 1.05D-05 at cycle   9 NSaved=   9.
 NSaved= 9 IEnMin= 9 EnMin= -1419.18480675654     IErMin= 9 ErrMin= 1.05D-05
 ErrMax= 1.05D-05  0.00D+00 EMaxC= 1.00D-01 BMatC= 1.21D-07 BMatP= 9.18D-07
 IDIUse=1 WtCom= 1.00D+00 WtEn= 0.00D+00
 Coeff-Com: -0.127D-02 0.274D-02 0.312D-02 0.202D-02-0.238D-01-0.449D-01
 Coeff-Com: -0.285D-01 0.260D+00 0.831D+00
 Coeff:     -0.127D-02 0.274D-02 0.312D-02 0.202D-02-0.238D-01-0.449D-01
 Coeff:     -0.285D-01 0.260D+00 0.831D+00
 Gap=     0.242 Goal=   None    Shift=    0.000
 RMSDP=7.42D-06 MaxDP=1.41D-03 DE=-1.67D-06 OVMax= 2.13D-04

 Cycle  10  Pass 1  IDiag  1:
 RMSU=  4.04D-06    CP:  9.79D-01  1.62D+00  8.14D-01  9.29D-01  1.24D+00
                    CP:  1.11D+00  1.11D+00  1.34D+00  1.13D+00
 E= -1419.18480699503     Delta-E=       -0.000000238490 Rises=F Damp=F
 DIIS: error= 7.89D-06 at cycle  10 NSaved=  10.
 NSaved=10 IEnMin=10 EnMin= -1419.18480699503     IErMin=10 ErrMin= 7.89D-06
 ErrMax= 7.89D-06  0.00D+00 EMaxC= 1.00D-01 BMatC= 2.45D-08 BMatP= 1.21D-07
 IDIUse=1 WtCom= 1.00D+00 WtEn= 0.00D+00
 Coeff-Com: -0.108D-03 0.222D-03 0.489D-03 0.101D-02 0.211D-02-0.110D-01
 Coeff-Com: -0.552D-01-0.222D-01 0.347D+00 0.737D+00
 Coeff:     -0.108D-03 0.222D-03 0.489D-03 0.101D-02 0.211D-02-0.110D-01
 Coeff:     -0.552D-01-0.222D-01 0.347D+00 0.737D+00
 Gap=     0.242 Goal=   None    Shift=    0.000
 RMSDP=2.07D-06 MaxDP=2.24D-04 DE=-2.38D-07 OVMax= 1.05D-04

 Cycle  11  Pass 1  IDiag  1:
 RMSU=  1.42D-06    CP:  9.79D-01  1.62D+00  8.14D-01  9.29D-01  1.24D+00
                    CP:  1.11D+00  1.12D+00  1.40D+00  1.19D+00  8.73D-01
 E= -1419.18480703769     Delta-E=       -0.000000042659 Rises=F Damp=F
 DIIS: error= 1.99D-06 at cycle  11 NSaved=  11.
 NSaved=11 IEnMin=11 EnMin= -1419.18480703769     IErMin=11 ErrMin= 1.99D-06
 ErrMax= 1.99D-06  0.00D+00 EMaxC= 1.00D-01 BMatC= 3.90D-09 BMatP= 2.45D-08
 IDIUse=1 WtCom= 1.00D+00 WtEn= 0.00D+00
 Coeff-Com:  0.152D-03-0.331D-03-0.293D-03 0.919D-04 0.441D-02 0.171D-02
 Coeff-Com: -0.185D-01-0.498D-01 0.194D-01 0.299D+00 0.744D+00
 Coeff:      0.152D-03-0.331D-03-0.293D-03 0.919D-04 0.441D-02 0.171D-02
 Coeff:     -0.185D-01-0.498D-01 0.194D-01 0.299D+00 0.744D+00
 Gap=     0.242 Goal=   None    Shift=    0.000
 RMSDP=1.28D-06 MaxDP=1.52D-04 DE=-4.27D-08 OVMax= 4.41D-05

 Cycle  12  Pass 1  IDiag  1:
 RMSU=  5.68D-07    CP:  9.79D-01  1.62D+00  8.14D-01  9.29D-01  1.24D+00
                    CP:  1.11D+00  1.13D+00  1.39D+00  1.20D+00  1.02D+00
                    CP:  1.15D+00
 E= -1419.18480704522     Delta-E=       -0.000000007538 Rises=F Damp=F
 DIIS: error= 1.21D-06 at cycle  12 NSaved=  12.
 NSaved=12 IEnMin=12 EnMin= -1419.18480704522     IErMin=12 ErrMin= 1.21D-06
 ErrMax= 1.21D-06  0.00D+00 EMaxC= 1.00D-01 BMatC= 5.82D-10 BMatP= 3.90D-09
 IDIUse=1 WtCom= 1.00D+00 WtEn= 0.00D+00
 Coeff-Com:  0.587D-04-0.127D-03-0.162D-03-0.993D-04 0.108D-02 0.250D-02
 Coeff-Com:  0.508D-02-0.124D-01-0.569D-01-0.219D-01 0.234D+00 0.848D+00
 Coeff:      0.587D-04-0.127D-03-0.162D-03-0.993D-04 0.108D-02 0.250D-02
 Coeff:      0.508D-02-0.124D-01-0.569D-01-0.219D-01 0.234D+00 0.848D+00
 Gap=     0.242 Goal=   None    Shift=    0.000
 RMSDP=3.86D-07 MaxDP=3.78D-05 DE=-7.54D-09 OVMax= 2.90D-05

 Cycle  13  Pass 1  IDiag  1:
 RMSU=  2.82D-07    CP:  9.79D-01  1.62D+00  8.14D-01  9.29D-01  1.24D+00
                    CP:  1.11D+00  1.13D+00  1.39D+00  1.21D+00  1.03D+00
                    CP:  1.26D+00  1.13D+00
 E= -1419.18480704716     Delta-E=       -0.000000001932 Rises=F Damp=F
 DIIS: error= 6.74D-07 at cycle  13 NSaved=  13.
 NSaved=13 IEnMin=13 EnMin= -1419.18480704716     IErMin=13 ErrMin= 6.74D-07
 ErrMax= 6.74D-07  0.00D+00 EMaxC= 1.00D-01 BMatC= 1.50D-10 BMatP= 5.82D-10
 IDIUse=1 WtCom= 1.00D+00 WtEn= 0.00D+00
 Coeff-Com: -0.115D-04 0.258D-04 0.724D-05-0.427D-04-0.619D-03 0.425D-03
 Coeff-Com:  0.551D-02 0.616D-02-0.250D-01-0.697D-01-0.935D-01 0.271D+00
 Coeff-Com:  0.906D+00
 Coeff:     -0.115D-04 0.258D-04 0.724D-05-0.427D-04-0.619D-03 0.425D-03
 Coeff:      0.551D-02 0.616D-02-0.250D-01-0.697D-01-0.935D-01 0.271D+00
 Coeff:      0.906D+00
 Gap=     0.242 Goal=   None    Shift=    0.000
 RMSDP=2.86D-07 MaxDP=4.00D-05 DE=-1.93D-09 OVMax= 2.22D-05

 Cycle  14  Pass 1  IDiag  1:
 RMSU=  1.33D-07    CP:  9.79D-01  1.62D+00  8.14D-01  9.29D-01  1.24D+00
                    CP:  1.11D+00  1.13D+00  1.39D+00  1.21D+00  1.06D+00
                    CP:  1.33D+00  1.31D+00  1.35D+00
 E= -1419.18480704767     Delta-E=       -0.000000000512 Rises=F Damp=F
 DIIS: error= 4.39D-07 at cycle  14 NSaved=  14.
 NSaved=14 IEnMin=14 EnMin= -1419.18480704767     IErMin=14 ErrMin= 4.39D-07
 ErrMax= 4.39D-07  0.00D+00 EMaxC= 1.00D-01 BMatC= 4.01D-11 BMatP= 1.50D-10
 IDIUse=1 WtCom= 1.00D+00 WtEn= 0.00D+00
 Coeff-Com: -0.141D-04 0.308D-04 0.344D-04 0.348D-05-0.407D-03-0.386D-03
 Coeff-Com:  0.545D-03 0.502D-02 0.486D-02-0.157D-01-0.794D-01-0.120D+00
 Coeff-Com:  0.334D+00 0.872D+00
 Coeff:     -0.141D-04 0.308D-04 0.344D-04 0.348D-05-0.407D-03-0.386D-03
 Coeff:      0.545D-03 0.502D-02 0.486D-02-0.157D-01-0.794D-01-0.120D+00
 Coeff:      0.334D+00 0.872D+00
 Gap=     0.242 Goal=   None    Shift=    0.000
 RMSDP=1.47D-07 MaxDP=2.50D-05 DE=-5.12D-10 OVMax= 1.25D-05

 Cycle  15  Pass 1  IDiag  1:
 RMSU=  6.54D-08    CP:  9.79D-01  1.62D+00  8.14D-01  9.29D-01  1.24D+00
                    CP:  1.11D+00  1.13D+00  1.39D+00  1.21D+00  1.06D+00
                    CP:  1.34D+00  1.41D+00  1.62D+00  1.29D+00
 E= -1419.18480704795     Delta-E=       -0.000000000277 Rises=F Damp=F
 DIIS: error= 1.90D-07 at cycle  15 NSaved=  15.
 NSaved=15 IEnMin=15 EnMin= -1419.18480704795     IErMin=15 ErrMin= 1.90D-07
 ErrMax= 1.90D-07  0.00D+00 EMaxC= 1.00D-01 BMatC= 7.79D-12 BMatP= 4.01D-11
 IDIUse=1 WtCom= 1.00D+00 WtEn= 0.00D+00
 Coeff-Com: -0.270D-06 0.422D-06 0.659D-05 0.111D-04 0.470D-04-0.200D-03
 Coeff-Com: -0.134D-02-0.295D-03 0.706D-02 0.126D-01 0.119D-01-0.110D+00
 Coeff-Com: -0.171D+00 0.154D+00 0.110D+01
 Coeff:     -0.270D-06 0.422D-06 0.659D-05 0.111D-04 0.470D-04-0.200D-03
 Coeff:     -0.134D-02-0.295D-03 0.706D-02 0.126D-01 0.119D-01-0.110D+00
 Coeff:     -0.171D+00 0.154D+00 0.110D+01
 Gap=     0.242 Goal=   None    Shift=    0.000
 RMSDP=1.04D-07 MaxDP=9.16D-06 DE=-2.77D-10 OVMax= 8.80D-06

 Cycle  16  Pass 1  IDiag  1:
 RMSU=  4.57D-08    CP:  9.79D-01  1.62D+00  8.14D-01  9.29D-01  1.24D+00
                    CP:  1.11D+00  1.13D+00  1.39D+00  1.21D+00  1.06D+00
                    CP:  1.34D+00  1.45D+00  1.82D+00  1.55D+00  1.60D+00
 E= -1419.18480704817     Delta-E=       -0.000000000225 Rises=F Damp=F
 DIIS: error= 7.09D-08 at cycle  16 NSaved=  16.
 NSaved=16 IEnMin=16 EnMin= -1419.18480704817     IErMin=16 ErrMin= 7.09D-08
 ErrMax= 7.09D-08  0.00D+00 EMaxC= 1.00D-01 BMatC= 1.89D-12 BMatP= 7.79D-12
 IDIUse=1 WtCom= 1.00D+00 WtEn= 0.00D+00
 Coeff-Com:  0.194D-05-0.432D-05-0.255D-05 0.576D-05 0.877D-04-0.912D-05
 Coeff-Com: -0.607D-03-0.947D-03 0.200D-02 0.710D-02 0.217D-01-0.191D-01
 Coeff-Com: -0.118D+00-0.119D+00 0.406D+00 0.820D+00
 Coeff:      0.194D-05-0.432D-05-0.255D-05 0.576D-05 0.877D-04-0.912D-05
 Coeff:     -0.607D-03-0.947D-03 0.200D-02 0.710D-02 0.217D-01-0.191D-01
 Coeff:     -0.118D+00-0.119D+00 0.406D+00 0.820D+00
 Gap=     0.242 Goal=   None    Shift=    0.000
 RMSDP=5.82D-08 MaxDP=8.03D-06 DE=-2.25D-10 OVMax= 2.65D-06

 Cycle  17  Pass 1  IDiag  1:
 RMSU=  3.32D-08    CP:  9.79D-01  1.62D+00  8.14D-01  9.29D-01  1.24D+00
                    CP:  1.11D+00  1.13D+00  1.39D+00  1.21D+00  1.07D+00
                    CP:  1.35D+00  1.46D+00  1.85D+00  1.64D+00  2.04D+00
                    CP:  1.50D+00
 E= -1419.18480704808     Delta-E=        0.000000000086 Rises=F Damp=F
 DIIS: error= 1.99D-08 at cycle  17 NSaved=  17.
 NSaved=17 IEnMin=16 EnMin= -1419.18480704817     IErMin=17 ErrMin= 1.99D-08
 ErrMax= 1.99D-08  0.00D+00 EMaxC= 1.00D-01 BMatC= 2.62D-13 BMatP= 1.89D-12
 IDIUse=1 WtCom= 1.00D+00 WtEn= 0.00D+00
 Coeff-Com:  0.364D-06-0.777D-06-0.162D-05-0.168D-06 0.113D-04 0.339D-04
 Coeff-Com:  0.851D-04-0.209D-03-0.715D-03-0.993D-03 0.405D-02 0.129D-01
 Coeff-Com:  0.352D-02-0.654D-01-0.850D-01 0.199D+00 0.933D+00
 Coeff:      0.364D-06-0.777D-06-0.162D-05-0.168D-06 0.113D-04 0.339D-04
 Coeff:      0.851D-04-0.209D-03-0.715D-03-0.993D-03 0.405D-02 0.129D-01
 Coeff:      0.352D-02-0.654D-01-0.850D-01 0.199D+00 0.933D+00
 Gap=     0.242 Goal=   None    Shift=    0.000
 RMSDP=6.83D-08 MaxDP=5.91D-06 DE= 8.64D-11 OVMax= 9.96D-07

 Cycle  18  Pass 1  IDiag  1:
 RMSU=  4.01D-08    CP:  9.79D-01  1.62D+00  8.14D-01  9.29D-01  1.24D+00
                    CP:  1.11D+00  1.13D+00  1.39D+00  1.21D+00  1.07D+00
                    CP:  1.36D+00  1.47D+00  1.86D+00  1.69D+00  2.31D+00
                    CP:  2.08D+00  1.73D+00
 E= -1419.18480704804     Delta-E=        0.000000000047 Rises=F Damp=F
 DIIS: error= 2.08D-08 at cycle  18 NSaved=  18.
 NSaved=18 IEnMin=16 EnMin= -1419.18480704817     IErMin=17 ErrMin= 1.99D-08
 ErrMax= 2.08D-08  0.00D+00 EMaxC= 1.00D-01 BMatC= 7.65D-14 BMatP= 2.62D-13
 IDIUse=1 WtCom= 1.00D+00 WtEn= 0.00D+00
 Coeff-Com:  0.297D-07-0.484D-07-0.569D-06-0.915D-06-0.250D-05 0.150D-04
 Coeff-Com:  0.886D-04 0.376D-05-0.438D-03-0.110D-02-0.435D-03 0.652D-02
 Coeff-Com:  0.142D-01-0.169D-01-0.673D-01-0.913D-02 0.351D+00 0.724D+00
 Coeff:      0.297D-07-0.484D-07-0.569D-06-0.915D-06-0.250D-05 0.150D-04
 Coeff:      0.886D-04 0.376D-05-0.438D-03-0.110D-02-0.435D-03 0.652D-02
 Coeff:      0.142D-01-0.169D-01-0.673D-01-0.913D-02 0.351D+00 0.724D+00
 Gap=     0.242 Goal=   None    Shift=    0.000
 RMSDP=7.84D-08 MaxDP=8.26D-06 DE= 4.73D-11 OVMax= 1.94D-07

 Cycle  19  Pass 1  IDiag  1:
 RMSU=  3.86D-08    CP:  9.79D-01  1.62D+00  8.14D-01  9.29D-01  1.24D+00
                    CP:  1.11D+00  1.13D+00  1.39D+00  1.21D+00  1.07D+00
                    CP:  1.36D+00  1.48D+00  1.85D+00  1.74D+00  2.57D+00
                    CP:  2.65D+00  2.88D+00  1.82D+00
 E= -1419.18480704801     Delta-E=        0.000000000029 Rises=F Damp=F
 DIIS: error= 3.02D-08 at cycle  19 NSaved=  19.
 NSaved=19 IEnMin=16 EnMin= -1419.18480704817     IErMin=17 ErrMin= 1.99D-08
 ErrMax= 3.02D-08  0.00D+00 EMaxC= 1.00D-01 BMatC= 1.32D-13 BMatP= 7.65D-14
 IDIUse=1 WtCom= 1.00D+00 WtEn= 0.00D+00
 Coeff-Com:  0.264D-07-0.388D-07-0.625D-06-0.103D-05-0.314D-05 0.168D-04
 Coeff-Com:  0.101D-03 0.751D-05-0.496D-03-0.125D-02-0.554D-03 0.733D-02
 Coeff-Com:  0.161D-01-0.182D-01-0.766D-01-0.126D-01 0.394D+00 0.807D+00
 Coeff-Com: -0.115D+00
 Coeff:      0.264D-07-0.388D-07-0.625D-06-0.103D-05-0.314D-05 0.168D-04
 Coeff:      0.101D-03 0.751D-05-0.496D-03-0.125D-02-0.554D-03 0.733D-02
 Coeff:      0.161D-01-0.182D-01-0.766D-01-0.126D-01 0.394D+00 0.807D+00
 Coeff:     -0.115D+00
 Gap=     0.242 Goal=   None    Shift=    0.000
 RMSDP=1.86D-08 MaxDP=1.36D-06 DE= 2.91D-11 OVMax= 7.47D-09

 Cycle  20  Pass 1  IDiag  1:
 RMSU=  7.08D-09    CP:  9.79D-01  1.62D+00  8.14D-01  9.29D-01  1.24D+00
                    CP:  1.11D+00  1.13D+00  1.39D+00  1.21D+00  1.07D+00
                    CP:  1.36D+00  1.47D+00  1.85D+00  1.72D+00  2.57D+00
                    CP:  2.55D+00  2.78D+00  1.53D+00  8.03D-01
 E= -1419.18480704792     Delta-E=        0.000000000091 Rises=F Damp=F
 DIIS: error= 2.33D-08 at cycle  20 NSaved=  20.
 NSaved=20 IEnMin=16 EnMin= -1419.18480704817     IErMin=17 ErrMin= 1.99D-08
 ErrMax= 2.33D-08  0.00D+00 EMaxC= 1.00D-01 BMatC= 1.16D-13 BMatP= 7.65D-14
 IDIUse=1 WtCom= 1.00D+00 WtEn= 0.00D+00
 Large coefficients: NSaved= 20 BigCof=    0.00 CofMax=   10.00 Det=-9.14D-15
 Inversion failed.  Reducing to 19 matrices.
 Large coefficients: NSaved= 19 BigCof=    0.00 CofMax=   10.00 Det=-9.65D-15
 Inversion failed.  Reducing to 18 matrices.
 Large coefficients: NSaved= 18 BigCof=    0.00 CofMax=   10.00 Det=-9.65D-15
 Inversion failed.  Reducing to 17 matrices.
 Large coefficients: NSaved= 17 BigCof=    0.00 CofMax=   10.00 Det=-9.65D-15
 Inversion failed.  Reducing to 16 matrices.
 Large coefficients: NSaved= 16 BigCof=    0.00 CofMax=   10.00 Det=-9.70D-15
 Inversion failed.  Reducing to 15 matrices.
 Coeff-Com:  0.318D-05 0.216D-04 0.887D-05-0.470D-04-0.462D-03-0.728D-03
 Coeff-Com:  0.171D-02 0.100D-01-0.581D-02-0.399D-01-0.307D-01 0.240D+00
 Coeff-Com:  0.800D+00-0.680D+00 0.707D+00
 Coeff:      0.318D-05 0.216D-04 0.887D-05-0.470D-04-0.462D-03-0.728D-03
 Coeff:      0.171D-02 0.100D-01-0.581D-02-0.399D-01-0.307D-01 0.240D+00
 Coeff:      0.800D+00-0.680D+00 0.707D+00
 Gap=     0.242 Goal=   None    Shift=    0.000
 RMSDP=2.60D-08 MaxDP=2.71D-06 DE= 9.09D-11 OVMax= 1.36D-08

 Cycle  21  Pass 1  IDiag  1:
 Restarting incremental Fock formation.
 E= -1419.18480704771     Delta-E=        0.000000000209 Rises=F Damp=F
 DIIS: error= 3.23D-08 at cycle  21 NSaved=  16.
 NSaved=16 IEnMin=11 EnMin= -1419.18480704817     IErMin=12 ErrMin= 1.99D-08
 ErrMax= 3.23D-08  0.00D+00 EMaxC= 1.00D-01 BMatC= 4.16D-13 BMatP= 7.65D-14
 IDIUse=1 WtCom= 1.00D+00 WtEn= 0.00D+00
 Large coefficients: NSaved= 16 BigCof=    0.00 CofMax=   10.00 Det=-9.33D-15
 Inversion failed.  Reducing to 15 matrices.
 Coeff-Com:  0.122D-04 0.969D-05-0.235D-04-0.321D-03-0.666D-03 0.133D-02
 Coeff-Com:  0.824D-02-0.347D-02-0.307D-01-0.354D-01 0.141D+00 0.616D+00
 Coeff-Com: -0.474D+00 0.587D+00 0.191D+00
 Coeff:      0.122D-04 0.969D-05-0.235D-04-0.321D-03-0.666D-03 0.133D-02
 Coeff:      0.824D-02-0.347D-02-0.307D-01-0.354D-01 0.141D+00 0.616D+00
 Coeff:     -0.474D+00 0.587D+00 0.191D+00
 Gap=     0.242 Goal=   None    Shift=    0.000
 RMSDP=7.61D-08 MaxDP=9.65D-06 DE= 2.09D-10 OVMax= 5.46D-08

 Cycle  22  Pass 1  IDiag  1:
 RMSU=  7.38D-08    CP:  1.00D+00
 E= -1419.18480704773     Delta-E=       -0.000000000025 Rises=F Damp=F
 DIIS: error= 3.26D-08 at cycle  22 NSaved=  16.
 NSaved=16 IEnMin=10 EnMin= -1419.18480704817     IErMin=11 ErrMin= 1.99D-08
 ErrMax= 3.26D-08  0.00D+00 EMaxC= 1.00D-01 BMatC= 3.14D-13 BMatP= 7.65D-14
 IDIUse=1 WtCom= 1.00D+00 WtEn= 0.00D+00
 Large coefficients: NSaved= 16 BigCof=    0.00 CofMax=   10.00 Det=-9.14D-15
 Inversion failed.  Reducing to 15 matrices.
 Coeff-Com:  0.885D-05 0.361D-04-0.132D-03-0.572D-03-0.161D-03 0.458D-02
 Coeff-Com: -0.231D-04-0.121D-01-0.238D-01 0.646D-01 0.362D+00-0.144D+00
 Coeff-Com:  0.421D+00-0.888D+00 0.122D+01
 Coeff:      0.885D-05 0.361D-04-0.132D-03-0.572D-03-0.161D-03 0.458D-02
 Coeff:     -0.231D-04-0.121D-01-0.238D-01 0.646D-01 0.362D+00-0.144D+00
 Coeff:      0.421D+00-0.888D+00 0.122D+01
 Gap=     0.242 Goal=   None    Shift=    0.000
 RMSDP=7.97D-08 MaxDP=7.38D-06 DE=-2.55D-11 OVMax= 4.86D-08

 Cycle  23  Pass 1  IDiag  1:
 RMSU=  3.84D-08    CP:  1.00D+00  1.88D+00
 E= -1419.18480704784     Delta-E=       -0.000000000107 Rises=F Damp=F
 DIIS: error= 3.02D-08 at cycle  23 NSaved=  16.
 NSaved=16 IEnMin= 9 EnMin= -1419.18480704817     IErMin=10 ErrMin= 1.99D-08
 ErrMax= 3.02D-08  0.00D+00 EMaxC= 1.00D-01 BMatC= 2.63D-13 BMatP= 7.65D-14
 IDIUse=1 WtCom= 1.00D+00 WtEn= 0.00D+00
 Large coefficients: NSaved= 16 BigCof=    0.00 CofMax=   10.00 Det=-3.81D-15
 Inversion failed.  Reducing to 15 matrices.
 Coeff-Com:  0.329D-04-0.640D-04-0.318D-03 0.378D-04 0.355D-02-0.103D-02
 Coeff-Com: -0.111D-01-0.193D-01 0.618D-01 0.320D+00-0.923D-01 0.377D+00
 Coeff-Com: -0.776D+00 0.491D+00 0.646D+00
 Coeff:      0.329D-04-0.640D-04-0.318D-03 0.378D-04 0.355D-02-0.103D-02
 Coeff:     -0.111D-01-0.193D-01 0.618D-01 0.320D+00-0.923D-01 0.377D+00
 Coeff:     -0.776D+00 0.491D+00 0.646D+00
 Gap=     0.242 Goal=   None    Shift=    0.000
 RMSDP=4.04D-08 MaxDP=3.65D-06 DE=-1.07D-10 OVMax= 1.96D-08

 Cycle  24  Pass 1  IDiag  1:
 RMSU=  2.08D-08    CP:  1.00D+00  2.26D+00  1.42D+00
 E= -1419.18480704788     Delta-E=       -0.000000000038 Rises=F Damp=F
 DIIS: error= 2.95D-08 at cycle  24 NSaved=  16.
 NSaved=16 IEnMin= 8 EnMin= -1419.18480704817     IErMin= 9 ErrMin= 1.99D-08
 ErrMax= 2.95D-08  0.00D+00 EMaxC= 1.00D-01 BMatC= 2.57D-13 BMatP= 7.65D-14
 IDIUse=1 WtCom= 1.00D+00 WtEn= 0.00D+00
 Large coefficients: NSaved= 16 BigCof=    0.00 CofMax=   10.00 Det=-3.39D-15
 Inversion failed.  Reducing to 15 matrices.
 Coeff-Com: -0.803D-04-0.279D-03 0.118D-03 0.358D-02-0.792D-03-0.104D-01
 Coeff-Com: -0.212D-01 0.537D-01 0.319D+00-0.830D-01 0.377D+00-0.812D+00
 Coeff-Com:  0.553D+00 0.724D+00-0.103D+00
 Coeff:     -0.803D-04-0.279D-03 0.118D-03 0.358D-02-0.792D-03-0.104D-01
 Coeff:     -0.212D-01 0.537D-01 0.319D+00-0.830D-01 0.377D+00-0.812D+00
 Coeff:      0.553D+00 0.724D+00-0.103D+00
 Gap=     0.242 Goal=   None    Shift=    0.000
 RMSDP=5.47D-09 MaxDP=3.31D-07 DE=-3.82D-11 OVMax= 4.36D-09

 SCF Done:  E(RCAM-B3LYP) =  -1419.18480705     A.U. after   24 cycles
            NFock= 24  Conv=0.55D-08     -V/T= 2.0041
 KE= 1.413392899422D+03 PE=-9.933375096650D+03 EE= 3.772598012899D+03
 Leave Link  502 at Fri May  1 17:42:02 2020, MaxMem=  6710886400 cpu:     16083.8
 (Enter /opt/sys/apps/gaussian09/D.01/g09/l801.exe)
 DoSCS=F DFT=T ScalE2(SS,OS)=  1.000000  1.000000
 ExpMin= 3.60D-02 ExpMax= 8.59D+03 ExpMxC= 1.30D+03 IAcc=3 IRadAn=         5 AccDes= 0.00D+00
 HarFok:  IExCor=  205 AccDes= 0.00D+00 IRadAn=         5 IDoV=-2 UseB2=F ITyADJ=14
 ICtDFT= 12500011 ScaDFX=  1.000000  1.000000  1.000000  1.000000
 Largest valence mixing into a core orbital is  4.51D-05
 Largest core mixing into a valence orbital is  1.12D-05
 Range of M.O.s used for correlation:    34   929
 NBasis=   943 NAE=   118 NBE=   118 NFC=    33 NFV=     0
 NROrb=    896 NOA=    85 NOB=    85 NVA=   811 NVB=   811

 **** Warning!!: The largest alpha MO coefficient is  0.14933979D+03

 Leave Link  801 at Fri May  1 17:42:04 2020, MaxMem=  6710886400 cpu:        14.0
 (Enter /opt/sys/apps/gaussian09/D.01/g09/l914.exe)
 RHF ground state
 MDV=  6710886400 DFT=T DoStab=F Mixed=T DoRPA=T DoScal=F NonHer=T
 Would need an additional        599111800000 words for in-memory AO integral storage.
 Making orbital integer symmetry assigments:
   120 initial guesses have been made.
 Convergence on wavefunction:    0.000001000000000
 Davidson Disk Diagonalization:  ConvIn= 1.00D-06 SkipCon=T Conv= 1.00D-06.
 Max sub-space:   480 roots to seek:   120 dimension of matrix:       137870
 Iteration     1 Dimension   120 NMult     0 NNew    120
 CISAX will form   120 AO SS matrices at one time.
 NMat=   120 NSing=   120 JSym2X= 0.
 FoFJK:  IHMeth= 1 ICntrl=       0 DoSepK=T KAlg= 0 I1Cent=   0 FoldK=F
 IRaf=         1 NMat= 240 IRICut=       1 DoRegI=T DoRafI=F ISym2E= 0.
 FoFCou: FMM=T IPFlag=           0 FMFlag=      100000 FMFlg1=        2001
         NFxFlg=           0 DoJE=F BraDBF=F KetDBF=F FulRan=T
         wScrn=  0.000000 ICntrl=     500 IOpCl=  0 I1Cent=           0 NGrid=           0
         NMat0=  120 NMatS0=    120 NMatT0=    0 NMatD0=  120 NMtDS0=    0 NMtDT0=    0
 Symmetry not used in FoFCou.
 FMM levels:  10  Number of levels for PrismC:   9
 New state      5 was old state     10
 New state      7 was old state      5
 New state      8 was old state      7
 New state      9 was old state     47
 New state     10 was old state      8
 New state     11 was old state     15
 New state     13 was old state      9
 New state     14 was old state     11
 New state     15 was old state     27
 New state     16 was old state     37
 New state     17 was old state     13
 New state     18 was old state     62
 New state     19 was old state     17
 New state     20 was old state     14
 New state     21 was old state     23
 New state     22 was old state     96
 New state     23 was old state     16
 New state     24 was old state     30
 New state     25 was old state     18
 New state     26 was old state     21
 New state     27 was old state     25
 New state     28 was old state     20
 New state     29 was old state     24
 New state     30 was old state     22
 Excitation Energies [eV] at current iteration:
 Root      1 :     3.564963894552087
 Root      2 :     4.375777435274552
 Root      3 :     4.973630491045042
 Root      4 :     5.163281848830095
 Root      5 :     5.262631792183540
 Root      6 :     5.411597447393468
 Root      7 :     5.743205815100413
 Root      8 :     5.862168717099791
 Root      9 :     5.878615748892376
 Root     10 :     6.158908877455062
 Root     11 :     6.251361124123529
 Root     12 :     6.282803807279850
 Root     13 :     6.330877022892121
 Root     14 :     6.638576068413615
 Root     15 :     6.667438339657492
 Root     16 :     6.688589311050884
 Root     17 :     6.788992455718794
 Root     18 :     6.842995370968202
 Root     19 :     6.940875817357324
 Root     20 :     6.967332269186548
 Root     21 :     7.098664751345370
 Root     22 :     7.155325776405721
 Root     23 :     7.168514069717586
 Root     24 :     7.200477400289953
 Root     25 :     7.276388439209515
 Root     26 :     7.322839406195477
 Root     27 :     7.377556460049737
 Root     28 :     7.445441111923382
 Root     29 :     7.495073996462854
 Root     30 :     7.547512097725523
 Root     31 :     7.575728824827978
 Root     32 :     7.642540225313442
 Root     33 :     7.654572692461746
 Root     34 :     7.705640161303385
 Root     35 :     7.781704528985429
 Root     36 :     7.821596775545592
 Root     37 :     7.854954286609590
 Root     38 :     7.911413256744503
 Root     39 :     7.948376139197134
 Root     40 :     7.961442496343990
 Root     41 :     8.018357793215840
 Root     42 :     8.035951233475195
 Root     43 :     8.095925375146656
 Root     44 :     8.100049085201583
 Root     45 :     8.135037068682605
 Root     46 :     8.183219421882079
 Root     47 :     8.218423536407863
 Root     48 :     8.251204886847113
 Root     49 :     8.284915267002109
 Root     50 :     8.304693269927576
 Root     51 :     8.314279678334330
 Root     52 :     8.371930553227337
 Root     53 :     8.391676249000302
 Root     54 :     8.405647554204766
 Root     55 :     8.424992081410494
 Root     56 :     8.437220798968957
 Root     57 :     8.442368252364778
 Root     58 :     8.480920278286559
 Root     59 :     8.492748709020452
 Root     60 :     8.502311029615635
 Root     61 :     8.533428229364022
 Root     62 :     8.568422519394192
 Root     63 :     8.571955799013740
 Root     64 :     8.589539134018516
 Root     65 :     8.635583212959721
 Root     66 :     8.660025489591883
 Root     67 :     8.705993041756242
 Root     68 :     8.744208244982163
 Root     69 :     8.764571117525541
 Root     70 :     8.787951662121280
 Root     71 :     8.798443131521944
 Root     72 :     8.830309735069312
 Root     73 :     8.848445068952463
 Root     74 :     8.854710247745446
 Root     75 :     8.858254448698215
 Root     76 :     8.900256471024765
 Root     77 :     8.932626377434790
 Root     78 :     8.978197053279203
 Root     79 :     8.995728491800445
 Root     80 :     9.024583407395562
 Root     81 :     9.039513427454224
 Root     82 :     9.048317518144602
 Root     83 :     9.071806084594273
 Root     84 :     9.097961650555202
 Root     85 :     9.114155625844740
 Root     86 :     9.136531484193737
 Root     87 :     9.144809923795341
 Root     88 :     9.164983058298501
 Root     89 :     9.186583452199288
 Root     90 :     9.216487440218195
 Root     91 :     9.218710076785630
 Root     92 :     9.255808614895315
 Root     93 :     9.292614453503756
 Root     94 :     9.321168011029114
 Root     95 :     9.339809493178821
 Root     96 :     9.351335989439621
 Root     97 :     9.377955050245331
 Root     98 :     9.412995880494993
 Root     99 :     9.464565822093077
 Root    100 :     9.473173283976831
 Root    101 :     9.492472869331678
 Root    102 :     9.578131479174257
 Root    103 :     9.587975430077336
 Root    104 :     9.606857017467242
 Root    105 :     9.626575188573359
 Root    106 :     9.657402187056766
 Root    107 :     9.670147642786848
 Root    108 :     9.728243665938562
 Root    109 :     9.747877847086066
 Root    110 :     9.829536838971748
 Root    111 :     9.844916428406929
 Root    112 :     9.879345478001312
 Root    113 :     9.908891428986905
 Root    114 :     9.925072042865645
 Root    115 :     9.943424287080299
 Root    116 :    10.002422793480090
 Root    117 :    10.013938570653540
 Root    118 :    10.018661453958750
 Root    119 :    10.036418598167760
 Root    120 :    10.287401462843280
 Iteration     2 Dimension   180 NMult   120 NNew     60
 CISAX will form    60 AO SS matrices at one time.
 NMat=    60 NSing=    60 JSym2X= 0.
 Root      1 not converged, maximum delta is    0.041199213893623
 Root      2 not converged, maximum delta is    0.052987995411566
 Root      3 not converged, maximum delta is    0.144907295790750
 Root      4 not converged, maximum delta is    0.361859128347676
 New state      5 was old state      6
 Root      5 not converged, maximum delta is    0.087194071968574
 New state      6 was old state      5
 Root      6 not converged, maximum delta is    0.297350286639276
 New state      7 was old state      9
 Root      7 not converged, maximum delta is    0.209233049059880
 New state      8 was old state      7
 Root      8 not converged, maximum delta is    0.171686786950551
 New state      9 was old state      8
 Root      9 not converged, maximum delta is    0.240378539163955
 New state     10 was old state     16
 Root     10 not converged, maximum delta is    0.228584798353387
 Root     11 not converged, maximum delta is    0.364748316077595
 New state     12 was old state     13
 Root     12 not converged, maximum delta is    0.302017814501520
 New state     13 was old state     10
 Root     13 not converged, maximum delta is    0.107574515062775
 New state     14 was old state     12
 Root     14 not converged, maximum delta is    0.328373522641983
 Root     15 not converged, maximum delta is    0.282166836061280
 New state     16 was old state     18
 Root     16 not converged, maximum delta is    0.335943037623539
 New state     17 was old state     22
 Root     17 not converged, maximum delta is    0.370901773606472
 New state     18 was old state     14
 Root     18 not converged, maximum delta is    0.296439668136866
 Root     19 not converged, maximum delta is    0.316733536884426
 New state     20 was old state     17
 Root     20 not converged, maximum delta is    0.168522117365395
 Root     21 not converged, maximum delta is    0.323069336799798
 New state     22 was old state     20
 Root     22 not converged, maximum delta is    0.168033641283196
 Root     23 not converged, maximum delta is    0.317396962666468
 New state     24 was old state     27
 Root     24 not converged, maximum delta is    0.235664795780160
 New state     25 was old state     26
 Root     25 not converged, maximum delta is    0.298832024190389
 New state     26 was old state     25
 Root     26 not converged, maximum delta is    0.385683083880390
 New state     27 was old state     24
 Root     27 not converged, maximum delta is    0.231455504305297
 New state     28 was old state     30
 Root     28 not converged, maximum delta is    0.138856508754159
 New state     29 was old state     28
 Root     29 not converged, maximum delta is    0.184311648090082
 New state     30 was old state     29
 Root     30 not converged, maximum delta is    0.072655809317835
 Excitation Energies [eV] at current iteration:
 Root      1 :     2.995080787247059   Change is   -0.569883107305028
 Root      2 :     3.905854414736580   Change is   -0.469923020537971
 Root      3 :     4.555351743803125   Change is   -0.418278747241916
 Root      4 :     4.811523331216503   Change is   -0.351758517613592
 Root      5 :     4.958494356138559   Change is   -0.453103091254908
 Root      6 :     5.034007637828619   Change is   -0.228624154354921
 Root      7 :     5.177185952263058   Change is   -0.701429796629318
 Root      8 :     5.393348157266111   Change is   -0.349857657834301
 Root      9 :     5.546968421821176   Change is   -0.315200295278615
 Root     10 :     5.678124933845746   Change is   -1.010464377205138
 Root     11 :     5.714913355314254   Change is   -0.536447768809275
 Root     12 :     5.914257441835501   Change is   -0.416619581056620
 Root     13 :     5.953435120200838   Change is   -0.205473757254224
 Root     14 :     6.067980388051207   Change is   -0.214823419228643
 Root     15 :     6.162675254748730   Change is   -0.504763084908763
 Root     16 :     6.271702165916055   Change is   -0.571293205052147
 Root     17 :     6.342845076770848   Change is   -0.812480699634873
 Root     18 :     6.406244036103995   Change is   -0.232332032309620
 Root     19 :     6.459363445837681   Change is   -0.481512371519644
 Root     20 :     6.568989762858370   Change is   -0.220002692860423
 Root     21 :     6.696256898241406   Change is   -0.402407853103965
 Root     22 :     6.746136135992155   Change is   -0.221196133194393
 Root     23 :     6.809384028054680   Change is   -0.359130041662905
 Root     24 :     6.823826337638430   Change is   -0.553730122411307
 Root     25 :     6.898900643659830   Change is   -0.423938762535647
 Root     26 :     6.975741890616417   Change is   -0.300646548593097
 Root     27 :     6.987099941187529   Change is   -0.213377459102424
 Root     28 :     7.076377121878747   Change is   -0.471134975846776
 Root     29 :     7.140594702314112   Change is   -0.304846409609270
 Root     30 :     7.193959272791589   Change is   -0.301114723671265
 Iteration     3 Dimension   240 NMult   180 NNew     60
 CISAX will form    60 AO SS matrices at one time.
 NMat=    60 NSing=    60 JSym2X= 0.
 Root      1 not converged, maximum delta is    0.003173281828277
 Root      2 not converged, maximum delta is    0.009059177337561
 Root      3 not converged, maximum delta is    0.009959906817308
 Root      4 not converged, maximum delta is    0.007737026820246
 Root      5 not converged, maximum delta is    0.011037645208046
 Root      6 not converged, maximum delta is    0.023267533333821
 Root      7 not converged, maximum delta is    0.010940715870285
 Root      8 not converged, maximum delta is    0.118922875560344
 New state      9 was old state     10
 Root      9 not converged, maximum delta is    0.191069286026693
 New state     10 was old state      9
 Root     10 not converged, maximum delta is    0.200177457695704
 Root     11 not converged, maximum delta is    0.063146106557630
 Root     12 not converged, maximum delta is    0.025284597916225
 Root     13 not converged, maximum delta is    0.035326391411653
 Root     14 not converged, maximum delta is    0.108620579659243
 Root     15 not converged, maximum delta is    0.090609334103934
 Root     16 not converged, maximum delta is    0.105302975916906
 Root     17 not converged, maximum delta is    0.094527111874563
 Root     18 not converged, maximum delta is    0.077690639206823
 Root     19 not converged, maximum delta is    0.116769335267133
 Root     20 not converged, maximum delta is    0.019930236329929
 Root     21 not converged, maximum delta is    0.035492980344168
 Root     22 not converged, maximum delta is    0.064997989607002
 New state     23 was old state     24
 Root     23 not converged, maximum delta is    0.178983933718152
 New state     24 was old state     23
 Root     24 not converged, maximum delta is    0.118702752511459
 Root     25 not converged, maximum delta is    0.129519177046383
 New state     26 was old state     27
 Root     26 not converged, maximum delta is    0.202112960713762
 New state     27 was old state     28
 Root     27 not converged, maximum delta is    0.185506756816496
 New state     28 was old state     26
 Root     28 not converged, maximum delta is    0.429263321556592
 Root     29 not converged, maximum delta is    0.267202170909372
 Root     30 not converged, maximum delta is    0.281082834225403
 Excitation Energies [eV] at current iteration:
 Root      1 :     2.965542838215979   Change is   -0.029537949031080
 Root      2 :     3.883676245587081   Change is   -0.022178169149499
 Root      3 :     4.531668354327715   Change is   -0.023683389475410
 Root      4 :     4.795201467629541   Change is   -0.016321863586962
 Root      5 :     4.934771958551885   Change is   -0.023722397586675
 Root      6 :     5.017533353232986   Change is   -0.016474284595632
 Root      7 :     5.144095316344253   Change is   -0.033090635918806
 Root      8 :     5.370398584356789   Change is   -0.022949572909322
 Root      9 :     5.409065814284752   Change is   -0.269059119560994
 Root     10 :     5.550478549669227   Change is    0.003510127848052
 Root     11 :     5.686883572813488   Change is   -0.028029782500766
 Root     12 :     5.887632560869543   Change is   -0.026624880965958
 Root     13 :     5.944952494254657   Change is   -0.008482625946181
 Root     14 :     6.029123984871426   Change is   -0.038856403179780
 Root     15 :     6.141497584192350   Change is   -0.021177670556379
 Root     16 :     6.216443905275215   Change is   -0.055258260640841
 Root     17 :     6.297837406037072   Change is   -0.045007670733776
 Root     18 :     6.388979903937162   Change is   -0.017264132166833
 Root     19 :     6.408279270827739   Change is   -0.051084175009942
 Root     20 :     6.553842360113305   Change is   -0.015147402745066
 Root     21 :     6.673725113590263   Change is   -0.022531784651142
 Root     22 :     6.727652279991516   Change is   -0.018483856000639
 Root     23 :     6.737159094266848   Change is   -0.086667243371582
 Root     24 :     6.790104747457532   Change is   -0.019279280597149
 Root     25 :     6.848617432154530   Change is   -0.050283211505300
 Root     26 :     6.895306888660898   Change is   -0.091793052526631
 Root     27 :     6.926728061535925   Change is   -0.149649060342822
 Root     28 :     6.963100443661085   Change is   -0.012641446955333
 Root     29 :     7.062758238736675   Change is   -0.077836463577437
 Root     30 :     7.133670380671762   Change is   -0.060288892119827
 Iteration     4 Dimension   300 NMult   240 NNew     60
 CISAX will form    60 AO SS matrices at one time.
 NMat=    60 NSing=    60 JSym2X= 0.
 Root      1 not converged, maximum delta is    0.000796440842507
 Root      2 not converged, maximum delta is    0.001537620496590
 Root      3 not converged, maximum delta is    0.002967284333447
 Root      4 not converged, maximum delta is    0.000898914669616
 Root      5 not converged, maximum delta is    0.002940075583343
 Root      6 not converged, maximum delta is    0.004611220894191
 Root      7 not converged, maximum delta is    0.002330814366359
 Root      8 not converged, maximum delta is    0.124476384655706
 Root      9 not converged, maximum delta is    0.112932227691739
 Root     10 not converged, maximum delta is    0.019821943946313
 Root     11 not converged, maximum delta is    0.006061827933949
 Root     12 not converged, maximum delta is    0.002936229457132
 Root     13 not converged, maximum delta is    0.004489037538674
 Root     14 not converged, maximum delta is    0.013029478410594
 Root     15 not converged, maximum delta is    0.017119445739251
 Root     16 not converged, maximum delta is    0.015419601171500
 Root     17 not converged, maximum delta is    0.013732269084827
 Root     18 not converged, maximum delta is    0.024797463595922
 Root     19 not converged, maximum delta is    0.027977998310218
 Root     20 not converged, maximum delta is    0.008257585419871
 Root     21 not converged, maximum delta is    0.010885045574740
 Root     22 not converged, maximum delta is    0.097247655278911
 Root     23 not converged, maximum delta is    0.155686332164160
 Root     24 not converged, maximum delta is    0.043621040871807
 Root     25 not converged, maximum delta is    0.135080684016116
 New state     26 was old state     27
 Root     26 not converged, maximum delta is    0.165909893990858
 New state     27 was old state     26
 Root     27 not converged, maximum delta is    0.239062370917522
 Root     28 not converged, maximum delta is    0.198504785415609
 Root     29 not converged, maximum delta is    0.157777142465836
 Root     30 not converged, maximum delta is    0.241372784657365
 Excitation Energies [eV] at current iteration:
 Root      1 :     2.964224298368215   Change is   -0.001318539847764
 Root      2 :     3.882321754765280   Change is   -0.001354490821801
 Root      3 :     4.529825547507593   Change is   -0.001842806820122
 Root      4 :     4.794256403208264   Change is   -0.000945064421277
 Root      5 :     4.932873803092646   Change is   -0.001898155459238
 Root      6 :     5.015985571959945   Change is   -0.001547781273041
 Root      7 :     5.141609590847009   Change is   -0.002485725497245
 Root      8 :     5.357755717979335   Change is   -0.012642866377455
 Root      9 :     5.387481331022480   Change is   -0.021584483262272
 Root     10 :     5.546693042940075   Change is   -0.003785506729152
 Root     11 :     5.683568138871208   Change is   -0.003315433942280
 Root     12 :     5.885719350479742   Change is   -0.001913210389801
 Root     13 :     5.944410312514340   Change is   -0.000542181740317
 Root     14 :     6.025331839645297   Change is   -0.003792145226130
 Root     15 :     6.139301529168765   Change is   -0.002196055023584
 Root     16 :     6.208881938137428   Change is   -0.007561967137786
 Root     17 :     6.291287516943628   Change is   -0.006549889093444
 Root     18 :     6.386979291039172   Change is   -0.002000612897990
 Root     19 :     6.404037569565247   Change is   -0.004241701262492
 Root     20 :     6.551641031999606   Change is   -0.002201328113699
 Root     21 :     6.670395814736511   Change is   -0.003329298853752
 Root     22 :     6.723765440891674   Change is   -0.003886839099842
 Root     23 :     6.728106595845000   Change is   -0.009052498421847
 Root     24 :     6.784339622263523   Change is   -0.005765125194009
 Root     25 :     6.809035435136321   Change is   -0.039581997018209
 Root     26 :     6.860113440267907   Change is   -0.066614621268019
 Root     27 :     6.867183584280828   Change is   -0.028123304380070
 Root     28 :     6.940818646432297   Change is   -0.022281797228787
 Root     29 :     6.976666467273840   Change is   -0.086091771462835
 Root     30 :     7.027865604703923   Change is   -0.105804775967840
 Iteration     5 Dimension   360 NMult   300 NNew     60
 CISAX will form    60 AO SS matrices at one time.
 NMat=    60 NSing=    60 JSym2X= 0.
 Root      1 not converged, maximum delta is    0.000116484354552
 Root      2 not converged, maximum delta is    0.000240193646821
 Root      3 not converged, maximum delta is    0.000519461225550
 Root      4 not converged, maximum delta is    0.000177839296779
 Root      5 not converged, maximum delta is    0.001063388762727
 Root      6 not converged, maximum delta is    0.000673991841041
 Root      7 not converged, maximum delta is    0.000866920153073
 Root      8 not converged, maximum delta is    0.011501168197258
 Root      9 not converged, maximum delta is    0.011592774810586
 Root     10 not converged, maximum delta is    0.001659520403196
 Root     11 not converged, maximum delta is    0.001008177255752
 Root     12 not converged, maximum delta is    0.000564011953643
 Root     13 not converged, maximum delta is    0.000478315933727
 Root     14 not converged, maximum delta is    0.001498743134032
 Root     15 not converged, maximum delta is    0.002388007751594
 Root     16 not converged, maximum delta is    0.003414884563640
 Root     17 not converged, maximum delta is    0.003383242748570
 Root     18 not converged, maximum delta is    0.002267568568573
 Root     19 not converged, maximum delta is    0.002323605143758
 Root     20 not converged, maximum delta is    0.001075449528283
 Root     21 not converged, maximum delta is    0.002180091335669
 Root     22 not converged, maximum delta is    0.029338548797614
 Root     23 not converged, maximum delta is    0.036506954457765
 Root     24 not converged, maximum delta is    0.017230570055515
 Root     25 not converged, maximum delta is    0.028464009214823
 Root     26 not converged, maximum delta is    0.025282371745621
 Root     27 not converged, maximum delta is    0.032902721099581
 Root     28 not converged, maximum delta is    0.067711659353541
 Root     29 not converged, maximum delta is    0.050435501913091
 Root     30 not converged, maximum delta is    0.073115268332576
 Excitation Energies [eV] at current iteration:
 Root      1 :     2.964171972432875   Change is   -0.000052325935340
 Root      2 :     3.882261316422665   Change is   -0.000060438342615
 Root      3 :     4.529718734704387   Change is   -0.000106812803206
 Root      4 :     4.794210868101611   Change is   -0.000045535106653
 Root      5 :     4.932749874453788   Change is   -0.000123928638858
 Root      6 :     5.015872228965905   Change is   -0.000113342994041
 Root      7 :     5.141453727560833   Change is   -0.000155863286175
 Root      8 :     5.356017137393802   Change is   -0.001738580585533
 Root      9 :     5.386444110754151   Change is   -0.001037220268328
 Root     10 :     5.546418072401454   Change is   -0.000274970538622
 Root     11 :     5.683319833369542   Change is   -0.000248305501666
 Root     12 :     5.885603893974105   Change is   -0.000115456505637
 Root     13 :     5.944364892113462   Change is   -0.000045420400878
 Root     14 :     6.024954109435604   Change is   -0.000377730209693
 Root     15 :     6.139027024232033   Change is   -0.000274504936733
 Root     16 :     6.207709008124740   Change is   -0.001172930012688
 Root     17 :     6.290187279176420   Change is   -0.001100237767208
 Root     18 :     6.386812747233220   Change is   -0.000166543805952
 Root     19 :     6.403671713645037   Change is   -0.000365855920209
 Root     20 :     6.551375307608623   Change is   -0.000265724390982
 Root     21 :     6.669953102416835   Change is   -0.000442712319676
 Root     22 :     6.722916515054912   Change is   -0.000848925836761
 Root     23 :     6.727114801811578   Change is   -0.000991794033422
 Root     24 :     6.783154259834558   Change is   -0.001185362428965
 Root     25 :     6.799581123859977   Change is   -0.009454311276344
 Root     26 :     6.849709679198725   Change is   -0.010403761069182
 Root     27 :     6.864527690394715   Change is   -0.002655893886114
 Root     28 :     6.936965664887667   Change is   -0.003852981544631
 Root     29 :     6.968231507252719   Change is   -0.008434960021120
 Root     30 :     6.986571169443649   Change is   -0.041294435260274
 Iteration     6 Dimension   420 NMult   360 NNew     60
 CISAX will form    60 AO SS matrices at one time.
 NMat=    60 NSing=    60 JSym2X= 0.
 Root      1 not converged, maximum delta is    0.000027613954761
 Root      2 not converged, maximum delta is    0.000042873122096
 Root      3 not converged, maximum delta is    0.000073238512359
 Root      4 not converged, maximum delta is    0.000037067173369
 Root      5 not converged, maximum delta is    0.000144696918839
 Root      6 not converged, maximum delta is    0.000166947151693
 Root      7 not converged, maximum delta is    0.000153896642635
 Root      8 not converged, maximum delta is    0.000963591429539
 Root      9 not converged, maximum delta is    0.000896432513795
 Root     10 not converged, maximum delta is    0.000436237248240
 Root     11 not converged, maximum delta is    0.000193032992943
 Root     12 not converged, maximum delta is    0.000178954159519
 Root     13 not converged, maximum delta is    0.000133713695571
 Root     14 not converged, maximum delta is    0.000400622680823
 Root     15 not converged, maximum delta is    0.000404705113847
 Root     16 not converged, maximum delta is    0.001065001607270
 Root     17 not converged, maximum delta is    0.001334206149594
 Root     18 not converged, maximum delta is    0.000204049588313
 Root     19 not converged, maximum delta is    0.000568532084674
 Root     20 not converged, maximum delta is    0.000484641080730
 Root     21 not converged, maximum delta is    0.000842550280127
 Root     22 not converged, maximum delta is    0.004214733275036
 Root     23 not converged, maximum delta is    0.004547363087371
 Root     24 not converged, maximum delta is    0.004238531423271
 Root     25 not converged, maximum delta is    0.005266782927668
 Root     26 not converged, maximum delta is    0.004708236312408
 Root     27 not converged, maximum delta is    0.003829004527370
 Root     28 not converged, maximum delta is    0.012279874544443
 Root     29 not converged, maximum delta is    0.013040545088271
 Root     30 not converged, maximum delta is    0.022755774543869
 Excitation Energies [eV] at current iteration:
 Root      1 :     2.964170107449071   Change is   -0.000001864983805
 Root      2 :     3.882258993490197   Change is   -0.000002322932468
 Root      3 :     4.529713937757582   Change is   -0.000004796946805
 Root      4 :     4.794208917611739   Change is   -0.000001950489872
 Root      5 :     4.932743730942477   Change is   -0.000006143511311
 Root      6 :     5.015865475255594   Change is   -0.000006753710310
 Root      7 :     5.141445152736505   Change is   -0.000008574824328
 Root      8 :     5.355878589412801   Change is   -0.000138547981001
 Root      9 :     5.386371489528565   Change is   -0.000072621225586
 Root     10 :     5.546392392303955   Change is   -0.000025680097499
 Root     11 :     5.683304895017974   Change is   -0.000014938351567
 Root     12 :     5.885596424579851   Change is   -0.000007469394255
 Root     13 :     5.944361029063616   Change is   -0.000003863049846
 Root     14 :     6.024920054425039   Change is   -0.000034055010565
 Root     15 :     6.138997965334707   Change is   -0.000029058897326
 Root     16 :     6.207561961908694   Change is   -0.000147046216046
 Root     17 :     6.290038491907094   Change is   -0.000148787269327
 Root     18 :     6.386801373848490   Change is   -0.000011373384730
 Root     19 :     6.403637124914820   Change is   -0.000034588730218
 Root     20 :     6.551343127263275   Change is   -0.000032180345349
 Root     21 :     6.669894026155616   Change is   -0.000059076261220
 Root     22 :     6.722810774419972   Change is   -0.000105740634941
 Root     23 :     6.726986927010270   Change is   -0.000127874801309
 Root     24 :     6.782977341920637   Change is   -0.000176917913920
 Root     25 :     6.798299875912742   Change is   -0.001281247947236
 Root     26 :     6.848209297138133   Change is   -0.001500382060591
 Root     27 :     6.864182452326002   Change is   -0.000345238068712
 Root     28 :     6.936303652004286   Change is   -0.000662012883381
 Root     29 :     6.966888629073354   Change is   -0.001342878179365
 Root     30 :     6.982259262592472   Change is   -0.004311906851176
 Iteration     7 Dimension   480 NMult   420 NNew     60
 CISAX will form    60 AO SS matrices at one time.
 NMat=    60 NSing=    60 JSym2X= 0.
 Root      1 not converged, maximum delta is    0.000005211486880
 Root      2 not converged, maximum delta is    0.000004909498829
 Root      3 not converged, maximum delta is    0.000014789421214
 Root      4 not converged, maximum delta is    0.000011141885217
 Root      5 not converged, maximum delta is    0.000018290826546
 Root      6 not converged, maximum delta is    0.000028320809378
 Root      7 not converged, maximum delta is    0.000021945302398
 Root      8 not converged, maximum delta is    0.000171824474278
 Root      9 not converged, maximum delta is    0.000141428348012
 Root     10 not converged, maximum delta is    0.000094565491724
 Root     11 not converged, maximum delta is    0.000030773335080
 Root     12 not converged, maximum delta is    0.000038442031271
 Root     13 not converged, maximum delta is    0.000018671339044
 Root     14 not converged, maximum delta is    0.000085009323830
 Root     15 not converged, maximum delta is    0.000069150760375
 Root     16 not converged, maximum delta is    0.000278322826533
 Root     17 not converged, maximum delta is    0.000290115032338
 Root     18 not converged, maximum delta is    0.000071425977015
 Root     19 not converged, maximum delta is    0.000135306239948
 Root     20 not converged, maximum delta is    0.000178862914263
 Root     21 not converged, maximum delta is    0.000302449441011
 Root     22 not converged, maximum delta is    0.000653288895455
 Root     23 not converged, maximum delta is    0.000987782973065
 Root     24 not converged, maximum delta is    0.001142396423679
 Root     25 not converged, maximum delta is    0.003289120603879
 Root     26 not converged, maximum delta is    0.002116073454230
 Root     27 not converged, maximum delta is    0.000767977571329
 Root     28 not converged, maximum delta is    0.002077053716421
 Root     29 not converged, maximum delta is    0.006143143927056
 Root     30 not converged, maximum delta is    0.009097927475097
 Excitation Energies [eV] at current iteration:
 Root      1 :     2.964170054449015   Change is   -0.000000053000056
 Root      2 :     3.882258921635803   Change is   -0.000000071854395
 Root      3 :     4.529713714932865   Change is   -0.000000222824717
 Root      4 :     4.794208806731725   Change is   -0.000000110880014
 Root      5 :     4.932743395107096   Change is   -0.000000335835381
 Root      6 :     5.015865046776943   Change is   -0.000000428478651
 Root      7 :     5.141444703488915   Change is   -0.000000449247590
 Root      8 :     5.355869186189454   Change is   -0.000009403223347
 Root      9 :     5.386366386452921   Change is   -0.000005103075644
 Root     10 :     5.546390290733566   Change is   -0.000002101570389
 Root     11 :     5.683304032803437   Change is   -0.000000862214537
 Root     12 :     5.885595832567609   Change is   -0.000000592012241
 Root     13 :     5.944360737318362   Change is   -0.000000291745255
 Root     14 :     6.024917301089817   Change is   -0.000002753335221
 Root     15 :     6.138995378925767   Change is   -0.000002586408940
 Root     16 :     6.207548087843197   Change is   -0.000013874065497
 Root     17 :     6.290023841691892   Change is   -0.000014650215201
[...]
 Alpha virt. eigenvalues --    0.06812   0.07007   0.07180   0.07471   0.07611
 Alpha virt. eigenvalues --    0.07647   0.07835   0.07952   0.08282   0.08308
 Alpha virt. eigenvalues --    0.08418   0.08601   0.08746   0.09156   0.09323
 Alpha virt. eigenvalues --    0.09384   0.09509   0.09655   0.09762   0.09909
 Alpha virt. eigenvalues --    0.09959   0.10042   0.10552   0.10646   0.10757
 Alpha virt. eigenvalues --    0.11028   0.11170   0.11356   0.11458   0.11668
 Alpha virt. eigenvalues --    0.11936   0.12029   0.12162   0.12349   0.12634
 Alpha virt. eigenvalues --    0.12791   0.12937   0.13268   0.13346   0.13534
 Alpha virt. eigenvalues --    0.13639   0.13794   0.14018   0.14169   0.14261
 Alpha virt. eigenvalues --    0.14525   0.14636   0.14808   0.15004   0.15112
 Alpha virt. eigenvalues --    0.15555   0.15588   0.15728   0.15962   0.16044
 Alpha virt. eigenvalues --    0.16403   0.16715   0.16821   0.17036   0.17376
 Alpha virt. eigenvalues --    0.17455   0.17677   0.17840   0.17978   0.18116
 Alpha virt. eigenvalues --    0.18267   0.18660   0.18992   0.19157   0.19374
 Alpha virt. eigenvalues --    0.19646   0.19813   0.19920   0.20086   0.20332
 Alpha virt. eigenvalues --    0.20872   0.20950   0.21146   0.21367   0.21556
 Alpha virt. eigenvalues --    0.21676   0.22097   0.22285   0.22706   0.22934
 Alpha virt. eigenvalues --    0.23295   0.23612   0.23692   0.23891   0.24050
 Alpha virt. eigenvalues --    0.24227   0.24494   0.24771   0.25096   0.25183
 Alpha virt. eigenvalues --    0.25344   0.25632   0.25795   0.25974   0.26098
 Alpha virt. eigenvalues --    0.26479   0.26517   0.26641   0.27024   0.27047
 Alpha virt. eigenvalues --    0.27094   0.27350   0.27723   0.28036   0.28324
 Alpha virt. eigenvalues --    0.28431   0.28693   0.28940   0.29031   0.29248
 Alpha virt. eigenvalues --    0.29413   0.29548   0.29666   0.29926   0.30019
 Alpha virt. eigenvalues --    0.30240   0.30496   0.30819   0.31002   0.31100
 Alpha virt. eigenvalues --    0.31510   0.31777   0.32055   0.32338   0.32404
 Alpha virt. eigenvalues --    0.32709   0.32891   0.33220   0.33568   0.33602
 Alpha virt. eigenvalues --    0.34035   0.34170   0.34207   0.34721   0.34962
 Alpha virt. eigenvalues --    0.35079   0.35401   0.35641   0.36084   0.36433
 Alpha virt. eigenvalues --    0.36696   0.36970   0.37256   0.37377   0.38119
 Alpha virt. eigenvalues --    0.38220   0.38455   0.38869   0.39086   0.39393
 Alpha virt. eigenvalues --    0.40018   0.40286   0.40501   0.41087   0.41304
 Alpha virt. eigenvalues --    0.42051   0.42443   0.42790   0.43319   0.43982
 Alpha virt. eigenvalues --    0.44687   0.44747   0.45745   0.46357   0.46979
 Alpha virt. eigenvalues --    0.47301   0.48274   0.49013   0.49224   0.50219
 Alpha virt. eigenvalues --    0.50551   0.51253   0.51880   0.52204   0.52623
 Alpha virt. eigenvalues --    0.53089   0.53425   0.54160   0.54681   0.55016
 Alpha virt. eigenvalues --    0.55683   0.56202   0.56457   0.56896   0.57110
 Alpha virt. eigenvalues --    0.57629   0.58063   0.58441   0.59254   0.59472
 Alpha virt. eigenvalues --    0.59945   0.60015   0.60517   0.60945   0.61369
 Alpha virt. eigenvalues --    0.61540   0.61980   0.62156   0.62249   0.62873
 Alpha virt. eigenvalues --    0.63416   0.63510   0.63949   0.64134   0.64372
 Alpha virt. eigenvalues --    0.64626   0.65024   0.65527   0.65792   0.66338
 Alpha virt. eigenvalues --    0.66790   0.67377   0.67496   0.67837   0.68119
 Alpha virt. eigenvalues --    0.68370   0.68502   0.68735   0.69027   0.69313
 Alpha virt. eigenvalues --    0.69797   0.70383   0.70435   0.70672   0.70975
 Alpha virt. eigenvalues --    0.71169   0.71576   0.71880   0.72535   0.72641
 Alpha virt. eigenvalues --    0.72797   0.73094   0.73452   0.73769   0.74116
 Alpha virt. eigenvalues --    0.74512   0.74762   0.75015   0.75211   0.75661
 Alpha virt. eigenvalues --    0.76031   0.76131   0.76323   0.76456   0.76657
 Alpha virt. eigenvalues --    0.76775   0.77219   0.77389   0.77828   0.78215
 Alpha virt. eigenvalues --    0.78509   0.78595   0.79471   0.79511   0.79679
 Alpha virt. eigenvalues --    0.79847   0.80409   0.80545   0.80770   0.81252
 Alpha virt. eigenvalues --    0.81683   0.82095   0.82647   0.83444   0.83973
 Alpha virt. eigenvalues --    0.84233   0.85040   0.85241   0.85774   0.86895
 Alpha virt. eigenvalues --    0.87395   0.87598   0.87878   0.87883   0.89500
 Alpha virt. eigenvalues --    0.90179   0.90561   0.91209   0.91559   0.92039
 Alpha virt. eigenvalues --    0.92640   0.92944   0.93313   0.94782   0.95344
 Alpha virt. eigenvalues --    0.95511   0.96135   0.96726   0.97006   0.97499
 Alpha virt. eigenvalues --    0.97785   0.98113   0.98471   0.99615   0.99870
 Alpha virt. eigenvalues --    1.00303   1.01018   1.01109   1.02115   1.02506
 Alpha virt. eigenvalues --    1.02719   1.03820   1.04005   1.04258   1.05240
 Alpha virt. eigenvalues --    1.05740   1.06218   1.06857   1.06982   1.07417
 Alpha virt. eigenvalues --    1.07670   1.07813   1.08796   1.09618   1.10122
 Alpha virt. eigenvalues --    1.10701   1.11478   1.11911   1.12249   1.12936
 Alpha virt. eigenvalues --    1.12994   1.14316   1.14720   1.15189   1.16108
 Alpha virt. eigenvalues --    1.16565   1.18100   1.18674   1.18970   1.20358
 Alpha virt. eigenvalues --    1.20793   1.21975   1.22885   1.23804   1.25025
 Alpha virt. eigenvalues --    1.25196   1.25993   1.27030   1.27604   1.27823
 Alpha virt. eigenvalues --    1.29465   1.30344   1.31430   1.32187   1.33167
 Alpha virt. eigenvalues --    1.33834   1.34210   1.34677   1.35298   1.36009
 Alpha virt. eigenvalues --    1.36333   1.37557   1.38112   1.38379   1.38639
 Alpha virt. eigenvalues --    1.40463   1.40835   1.41404   1.42514   1.43157
 Alpha virt. eigenvalues --    1.44703   1.45418   1.46459   1.48039   1.49995
 Alpha virt. eigenvalues --    1.50868   1.51204   1.51872   1.51984   1.52271
 Alpha virt. eigenvalues --    1.52609   1.52871   1.53380   1.53981   1.54668
 Alpha virt. eigenvalues --    1.55237   1.56160   1.56433   1.56541   1.56611
 Alpha virt. eigenvalues --    1.57099   1.57186   1.57746   1.58173   1.58367
 Alpha virt. eigenvalues --    1.59355   1.59654   1.59852   1.60750   1.61126
 Alpha virt. eigenvalues --    1.61486   1.61685   1.62111   1.62285   1.62340
 Alpha virt. eigenvalues --    1.62843   1.63410   1.63701   1.63742   1.64029
 Alpha virt. eigenvalues --    1.64793   1.65117   1.65336   1.65807   1.65927
 Alpha virt. eigenvalues --    1.66312   1.66822   1.67699   1.67926   1.68171
 Alpha virt. eigenvalues --    1.68614   1.69057   1.69335   1.70620   1.71557
 Alpha virt. eigenvalues --    1.71841   1.72872   1.73185   1.73937   1.74466
 Alpha virt. eigenvalues --    1.74546   1.75404   1.76445   1.76481   1.77105
 Alpha virt. eigenvalues --    1.77566   1.77783   1.78367   1.78694   1.79440
 Alpha virt. eigenvalues --    1.79615   1.80069   1.80204   1.80632   1.81078
 Alpha virt. eigenvalues --    1.81310   1.81655   1.82075   1.82179   1.82966
 Alpha virt. eigenvalues --    1.84205   1.84603   1.85036   1.85617   1.85672
 Alpha virt. eigenvalues --    1.86737   1.87160   1.87958   1.88611   1.89415
 Alpha virt. eigenvalues --    1.90422   1.90498   1.91384   1.91918   1.92770
 Alpha virt. eigenvalues --    1.92965   1.93764   1.93894   1.94523   1.95328
 Alpha virt. eigenvalues --    1.95600   1.95768   1.96541   1.97478   1.97780
 Alpha virt. eigenvalues --    1.98266   1.98604   1.99907   2.00610   2.01779
 Alpha virt. eigenvalues --    2.02529   2.02893   2.03341   2.03696   2.04389
 Alpha virt. eigenvalues --    2.06522   2.07952   2.08384   2.08617   2.09161
 Alpha virt. eigenvalues --    2.09527   2.10288   2.10839   2.11256   2.12436
 Alpha virt. eigenvalues --    2.13116   2.13532   2.13592   2.13952   2.14796
 Alpha virt. eigenvalues --    2.15537   2.16302   2.17060   2.17420   2.18179
 Alpha virt. eigenvalues --    2.18600   2.19307   2.20845   2.21946   2.22081
 Alpha virt. eigenvalues --    2.23137   2.23400   2.23570   2.25069   2.25765
 Alpha virt. eigenvalues --    2.27738   2.29545   2.30260   2.30735   2.32225
 Alpha virt. eigenvalues --    2.33500   2.34524   2.34797   2.35563   2.36514
 Alpha virt. eigenvalues --    2.37530   2.37992   2.38323   2.38620   2.39105
 Alpha virt. eigenvalues --    2.39462   2.39878   2.42691   2.44614   2.45277
 Alpha virt. eigenvalues --    2.47093   2.47300   2.48154   2.49470   2.49574
 Alpha virt. eigenvalues --    2.50773   2.51981   2.52097   2.52328   2.53068
 Alpha virt. eigenvalues --    2.54641   2.55036   2.55194   2.55862   2.56748
 Alpha virt. eigenvalues --    2.57112   2.59043   2.59391   2.59801   2.60069
 Alpha virt. eigenvalues --    2.60536   2.61784   2.62080   2.62755   2.63226
 Alpha virt. eigenvalues --    2.63861   2.64181   2.64845   2.64867   2.66416
 Alpha virt. eigenvalues --    2.66710   2.67240   2.67257   2.67968   2.68495
 Alpha virt. eigenvalues --    2.69281   2.69741   2.70095   2.70915   2.71447
 Alpha virt. eigenvalues --    2.71637   2.72108   2.73412   2.74057   2.74384
 Alpha virt. eigenvalues --    2.74601   2.75547   2.76179   2.76857   2.77872
 Alpha virt. eigenvalues --    2.78093   2.79230   2.79903   2.80196   2.80413
 Alpha virt. eigenvalues --    2.81005   2.82023   2.82409   2.82859   2.83494
 Alpha virt. eigenvalues --    2.83901   2.84071   2.84626   2.85185   2.85380
 Alpha virt. eigenvalues --    2.85596   2.86543   2.86548   2.87672   2.87931
 Alpha virt. eigenvalues --    2.88507   2.89202   2.89774   2.89928   2.90774
 Alpha virt. eigenvalues --    2.91271   2.91790   2.92590   2.93806   2.94508
 Alpha virt. eigenvalues --    2.94758   2.95571   2.95629   2.96423   2.96924
 Alpha virt. eigenvalues --    2.97792   2.98363   2.98419   2.99124   2.99473
 Alpha virt. eigenvalues --    3.00193   3.00431   3.01168   3.01664   3.02540
 Alpha virt. eigenvalues --    3.04557   3.04829   3.07275   3.08619   3.09855
 Alpha virt. eigenvalues --    3.10803   3.11416   3.12383   3.13656   3.14657
 Alpha virt. eigenvalues --    3.15518   3.16241   3.18817   3.22278   3.23771
 Alpha virt. eigenvalues --    3.24682   3.25734   3.26790   3.28125   3.30437
 Alpha virt. eigenvalues --    3.30849   3.31190   3.32585   3.35904   3.36454
 Alpha virt. eigenvalues --    3.37813   3.40032   3.40598   3.41065   3.42631
 Alpha virt. eigenvalues --    3.44358   3.44469   3.45795   3.46605   3.49818
 Alpha virt. eigenvalues --    3.57177   3.58534   3.59744   3.60173   3.61421
 Alpha virt. eigenvalues --    3.62887   3.63727   3.65756   3.66559   3.70641
 Alpha virt. eigenvalues --    3.70839   3.71547   3.73044   3.73505   3.78350
 Alpha virt. eigenvalues --    3.80053   3.83814   3.84186   3.84664   3.85163
 Alpha virt. eigenvalues --    3.85660   3.86187   3.86459   3.87323   3.87720
 Alpha virt. eigenvalues --    3.88061   3.88457   3.90163   3.90475   3.95330
 Alpha virt. eigenvalues --    3.96468   3.99857   4.01902   4.03457   4.04184
 Alpha virt. eigenvalues --    4.07227   4.10765   4.12488   4.15273   4.16695
 Alpha virt. eigenvalues --    4.20292   4.22866   4.23266   4.24969   4.25502
 Alpha virt. eigenvalues --    4.28970   4.29071   4.29387   4.31834   4.32594
 Alpha virt. eigenvalues --    4.49335   4.68707   4.85075   4.87279   4.87762
 Alpha virt. eigenvalues --    4.90887   4.91029   5.03319   5.11498   5.12033
 Alpha virt. eigenvalues --    5.14882   5.16338   5.23576   5.43686   5.44814
 Alpha virt. eigenvalues --    5.64352   5.94322   6.02337  23.60435  23.72996
 Alpha virt. eigenvalues --   23.77419  23.87664  23.88551  23.90228  23.91770
 Alpha virt. eigenvalues --   23.92510  23.93205  23.95402  23.95767  23.96598
 Alpha virt. eigenvalues --   23.98054  23.99851  24.00634  24.03861  24.04084
 Alpha virt. eigenvalues --   24.04415  24.04766  24.05145  24.05413  24.11205
 Alpha virt. eigenvalues --   24.13999  24.14693  24.15787  24.21213  24.21368
 Alpha virt. eigenvalues --   24.22886  35.62680  35.63214  49.93813  50.00632
 Alpha virt. eigenvalues --   50.06044
          Condensed to atoms (all electrons):
 Mulliken charges:
               1
     1  C   -0.212547
     2  C   -0.446141
     3  C   -0.186459
     4  C   -0.464480
     5  C   -0.214368
     6  C    0.555424
     7  O   -0.009733
     8  C    0.400288
     9  C    0.303040
    10  C    0.460823
    11  C   -0.072165
    12  C   -0.296819
    13  C   -0.415892
    14  C   -0.394997
    15  C   -0.078704
    16  C    0.677443
    17  C   -0.167321
    18  C   -0.565428
    19  C   -0.162239
    20  C   -0.428854
    21  N    0.191334
    22  C   -0.293177
    23  C   -0.413002
    24  N    0.205966
    25  C   -0.299299
    26  C   -0.408531
    27  C   -0.701951
    28  H    0.251410
    29  H    0.235370
    30  H    0.260801
    31  H    0.221328
    32  H    0.226185
    33  H    0.216731
    34  H    0.253077
    35  H    0.247029
    36  H    0.177917
    37  H    0.184053
    38  H    0.165707
    39  H    0.148630
    40  H    0.159812
    41  H    0.180707
    42  H    0.180470
    43  H    0.166599
    44  H    0.159036
    45  H    0.148580
    46  C   -0.271735
    47  C   -0.419002
    48  H    0.179286
    49  H    0.173598
    50  H    0.154707
    51  H    0.170093
    52  H    0.159899
    53  C   -0.265784
    54  C   -0.420626
    55  H    0.158309
    56  H    0.148442
    57  H    0.172488
    58  H    0.170541
    59  H    0.181140
    60  H    0.234020
    61  H    0.219722
    62  O   -0.153232
    63  O    0.012990
    64  H    0.249493
 Sum of Mulliken charges =   1.00000
 Mulliken charges with hydrogens summed into heavy atoms:
               1
     1  C    0.007175
     2  C   -0.446141
     3  C    0.064951
     4  C   -0.229111
     5  C   -0.214368
     6  C    0.555424
     7  O   -0.009733
     8  C    0.400288
     9  C    0.303040
    10  C    0.460823
    11  C    0.188636
    12  C   -0.075491
    13  C   -0.189707
    14  C   -0.178266
    15  C   -0.078704
    16  C    0.677443
    17  C    0.085757
    18  C   -0.565428
    19  C    0.071781
    20  C   -0.181826
    21  N    0.191334
    22  C    0.068794
    23  C    0.061147
    24  N    0.205966
    25  C    0.061878
    26  C    0.065683
    27  C   -0.701951
    46  C    0.081148
    47  C    0.065697
    53  C    0.085897
    54  C    0.058612
    62  O   -0.153232
    63  O    0.262483
 Electronic spatial extent (au):  <R**2>=          83325.6428
 Charge=              1.0000 electrons
 Dipole moment (field-independent basis, Debye):
    X=              1.8076    Y=            -45.8312    Z=             -4.4175  Tot=             46.0791
 Quadrupole moment (field-independent basis, Debye-Ang):
   XX=           -143.4674   YY=            362.4131   ZZ=           -198.2621
   XY=            -30.8712   XZ=             20.5076   YZ=             26.1989
 Traceless Quadrupole moment (field-independent basis, Debye-Ang):
   XX=           -150.3620   YY=            355.5186   ZZ=           -205.1566
   XY=            -30.8712   XZ=             20.5076   YZ=             26.1989
 Octapole moment (field-independent basis, Debye-Ang**2):
  XXX=           -304.7872  YYY=          -2332.6466  ZZZ=           -263.1523  XYY=            157.5019
  XXY=           1284.2168  XXZ=            -21.2578  XZZ=           -146.6956  YZZ=           1705.9995
  YYZ=           -289.6313  XYZ=           -173.1835
 Hexadecapole moment (field-independent basis, Debye-Ang**3):
 XXXX=          -5730.6949 YYYY=           -432.3505 ZZZZ=          -3300.0860 XXXY=           3071.2755
 XXXZ=          -1068.8757 YYYX=           1747.0650 YYYZ=           4305.0436 ZZZX=          -1437.7447
 ZZZY=           2026.3385 XXYY=         -14839.4789 XXZZ=          -1452.1402 YYZZ=         -17623.2078
 XXYZ=            171.2143 YYXZ=           1094.2305 ZZXY=           1386.5309
 N-N= 3.328199377281D+03 E-N=-9.933923562446D+03  KE= 1.413533281742D+03
 No NMR shielding tensors so no spin-rotation constants.
 Leave Link  601 at Fri May  1 22:51:04 2020, MaxMem=  6710886400 cpu:        12.5
 (Enter /opt/sys/apps/gaussian09/D.01/g09/l9999.exe)

 Test job not archived.
 1\1\GINC-S92P29\SP\RCAM-B3LYP TD-FC\6-311++G(d,p)\C28H31N2O3(1+)\SALVA
 TORE\01-May-2020\0\\#p CAM-B3LYP/6-311++G** geom=allcheck nosym TD=(NS
 TATES=30,ROOT=1) density=current iop(3/119=0810000000) iop(3/120=08100
 00000)\\cation\\1,1\C,0,1.7035122061,-12.4437559715,0.3146783332\C,0,0
 .4715727267,-12.5940596257,-0.4122686977\C,0,-0.2155308166,-11.4056237
 851,-0.7652731242\C,0,2.2076606872,-11.2115764426,0.6197067717\C,0,1.5
 448308529,-10.0080687667,0.2435807775\C,0,0.3121279239,-10.1736279833,
 -0.4491344015\O,0,-0.4198818869,-9.0905316128,-0.8233686444\C,0,2.0026
 726879,-8.7051645665,0.5397018111\C,0,3.2854028298,-8.5013198312,1.275
 3825237\C,0,3.3224604964,-7.97701837,2.5832367938\C,0,4.5547977271,-7.
 7265031879,3.1956872257\C,0,5.7448906263,-8.0172786699,2.5381382788\C,
 0,5.7132152816,-8.5430683668,1.2481034661\C,0,4.4929662843,-8.77807523
 79,0.6210399311\C,0,1.237557739,-7.6022211109,0.1200069975\C,0,0.00591
 05886,-7.8238270572,-0.5631722416\C,0,-0.8133909378,-6.8049494644,-0.9
 885356997\C,0,-0.4476567042,-5.4516972449,-0.7683790216\C,0,0.80117731
 03,-5.2118186613,-0.094905927\C,0,1.5977120468,-6.2370005166,0.3194153
 67\N,0,-1.2276823464,-4.4267442112,-1.1838526015\C,0,-2.5163000153,-4.
 6709889954,-1.8582924731\C,0,-3.6816766527,-4.9756048141,-0.9112758204
 \N,0,-0.0046554665,-13.8185585143,-0.7460016538\C,0,-1.292074944,-13.9
 710017883,-1.4483653575\C,0,-2.5250454155,-13.8868141832,-0.5423195226
 \C,0,2.0837708657,-7.6221305569,3.3647101701\H,0,-1.1628562533,-11.423
 3163595,-1.2810931667\H,0,3.1410199628,-11.1446849609,1.1643491034\H,0
 ,4.564924223,-7.3028891909,4.1926383703\H,0,6.6925244641,-7.8277066281
 ,3.0277867251\H,0,6.6364102746,-8.7599816583,0.7238317479\H,0,4.471996
 1624,-9.1559039473,-0.3947977568\H,0,-1.7343225804,-7.0772765155,-1.47
 98992023\H,0,2.529192986,-6.0087232549,0.8199843745\H,0,-2.384903865,-
 5.4792735882,-2.5813118937\H,0,-2.7392946281,-3.7780582966,-2.44299402
 17\H,0,-4.5851156253,-5.1678061538,-1.4956147572\H,0,-3.4843459983,-5.
 8534765327,-0.2927928317\H,0,-3.885096162,-4.1336389448,-0.2474760604\
 H,0,-1.2660281923,-14.9411248222,-1.9454222805\H,0,-1.3473642726,-13.2
 256155023,-2.2453860376\H,0,-3.4298081483,-13.9877492097,-1.1471187228
 \H,0,-2.5272685271,-14.6865653636,0.2001469773\H,0,-2.5773574803,-12.9
 335169548,-0.0123983945\C,0,-0.8551361299,-3.0185939471,-0.9386370046\
 C,0,-1.2016907881,-2.5039497942,0.4616462271\H,0,-1.3746764696,-2.4243
 612341,-1.6909386307\H,0,0.209975328,-2.8956892332,-1.1432698746\H,0,-
 2.2773686489,-2.5367816755,0.6434151775\H,0,-0.8771051939,-1.464754427
 9,0.5580227742\H,0,-0.7084685308,-3.0860397287,1.2428718551\C,0,0.7219
 628102,-15.0550400254,-0.4003881612\C,0,0.4470957795,-15.5835013593,1.
 0107826281\H,0,-0.6044131613,-15.8455405171,1.141091713\H,0,0.70998712
 49,-14.8505218379,1.7766884393\H,0,1.0404173962,-16.4845373986,1.18604
 35623\H,0,1.7903286446,-14.8885586248,-0.5492442242\H,0,0.4315288397,-
 15.8041563671,-1.1381320422\H,0,1.1242746125,-4.2012268962,0.100936204
 4\H,0,2.2481362995,-13.3164159522,0.6411025472\O,0,1.9352741526,-6.561
 0454786,3.9028702961\O,0,1.1189144364,-8.5750571487,3.4503145524\H,0,1
 .4261034637,-9.4132509324,3.0824885274\\Version=ES64L-G09RevD.01\HF=-1
 419.184807\RMSD=5.472e-09\Dipole=-0.7616597,-1.441221,-2.4478661\Quadr
 upole=-111.7904519,264.3193856,-152.5289337,-22.9519731,15.2468849,19.
 4782175\PG=C01 [X(C28H31N2O3)]\\@


 A SUCCESSFUL PURSUIT OF SCIENCE MAKES A MAN THE
 BENEFACTOR OF ALL MANKIND OF EVERY AGE.
   --  JOSEPH PRIESTLEY, "EXPERIMENTS AND
 OBSERVATIONS ON DIFFERENT KINDS OF AIR", 1774
 Job cpu time:       5 days  7 hours 48 minutes 19.6 seconds.
 File lengths (MBytes):  RWF=   5349 Int=      0 D2E=      0 Chk=    836 Scr=      1
 Normal termination of Gaussian 09 at Fri May  1 22:51:05 2020.
